
    -----------------------------------------------------------------------
          Psi4: An Open-Source Ab Initio Electronic Structure Package
                               Psi4 1.4a2.dev1054 

                         Git: Rev {master} 673fe5b dirty


    D. G. A. Smith, L. A. Burns, A. C. Simmonett, R. M. Parrish,
    M. C. Schieber, R. Galvelis, P. Kraus, H. Kruse, R. Di Remigio,
    A. Alenaizan, A. M. James, S. Lehtola, J. P. Misiewicz, M. Scheurer,
    R. A. Shaw, J. B. Schriber, Y. Xie, Z. L. Glick, D. A. Sirianni,
    J. S. O'Brien, J. M. Waldrop, A. Kumar, E. G. Hohenstein,
    B. P. Pritchard, B. R. Brooks, H. F. Schaefer III, A. Yu. Sokolov,
    K. Patkowski, A. E. DePrince III, U. Bozkaya, R. A. King,
    F. A. Evangelista, J. M. Turney, T. D. Crawford, C. D. Sherrill,
    J. Chem. Phys. 152(18) 184108 (2020). https://doi.org/10.1063/5.0006002

                            Additional Code Authors
    E. T. Seidl, C. L. Janssen, E. F. Valeev, M. L. Leininger,
    J. F. Gonthier, R. M. Richard, H. R. McAlexander, M. Saitow, X. Wang,
    P. Verma, and M. H. Lechner

             Previous Authors, Complete List of Code Contributors,
                       and Citations for Specific Modules
    https://github.com/psi4/psi4/blob/master/codemeta.json
    https://github.com/psi4/psi4/graphs/contributors
    http://psicode.org/psi4manual/master/introduction.html#citing-psifour

    -----------------------------------------------------------------------


    Psi4 started on: Wednesday, 25 November 2020 12:37PM

    Process ID: 47062
    Host:       Alberts-MacBook-Pro.local
    PSIDATADIR: /Users/deprince/software/psi4/install/share/psi4
    Memory:     500.0 MiB
    Threads:    1
    
  ==> Input File <==

--------------------------------------------------------------------------
# test against hubbard model polaritonic CC
# https://journals.aps.org/prresearch/pdf/10.1103/PhysRevResearch.2.023262

sys.path.insert(0, '../../..')
import hilbert 

molecule h2 {
0 1
H 0.0 0.0 0.0
H 0.0 0.0 1.0
no_reorient
nocom
symmetry c1
}
set {
  basis cc-pvdz
  scf_type df 
  e_convergence 1e-12
  d_convergence 1e-12 
  df_basis_mp2  aug-cc-pv5z-jkfit
  df_basis_cc   aug-cc-pv5z-jkfit
  df_basis_scf  aug-cc-pv5z-jkfit
} 

set hilbert {
  maxiter 500

  n_photon_states          2
  cavity_frequency         [0.0, 0.0, 1.028]
  cavity_coupling_strength [0.0, 0.0, 0.01]

  #n_photon_states          1
  #cavity_frequency         [0.0, 0.0, 0.0]
  #cavity_coupling_strength [0.0, 0.0, 0.0]

  hubbard_hamiltonian true
  hubbard_t  0.5
  hubbard_u  1.0
  n_hubbard_spins 4
  n_hubbard_sites 4
  hubbard_multiplicity 1

  polaritonic_cc_include_u0 true
  polaritonic_cc_include_u1 true
  polaritonic_cc_include_u2 true
}

activate(h2)

set reference uhf

ref_0 = -1.43801 # field free
ref_1 = -1.43791 # CC-SD-S-0
ref_2 = -1.43795 # CC-SD-S-D
ref_3 = -1.43796 # CC-SD-S-DT

en = energy('polaritonic-uccsd') 
#compare_values(ref_0, en, 5, "CCSD(0)") # TEST
#compare_values(ref_1, en, 5, "CC-SD-S-O") # TEST
#compare_values(ref_2, en, 5, "CC-SD-S-D") # TEST
compare_values(ref_3, en, 5, "QED-CCSD-1 vs CC-SD-S-DT") # TEST


--------------------------------------------------------------------------

Scratch directory: /tmp/

*** tstart() called on Alberts-MacBook-Pro.local
*** at Wed Nov 25 12:37:27 2020

   => Loading Basis Set <=

    Name: CC-PVDZ
    Role: ORBITAL
    Keyword: BASIS
    atoms 1-2 entry H          line    22 file /Users/deprince/software/psi4/install/share/psi4/basis/cc-pvdz.gbs 


         ---------------------------------------------------------
                                   SCF
               by Justin Turney, Rob Parrish, Andy Simmonett
                          and Daniel G. A. Smith
                              UHF Reference
                        1 Threads,    500 MiB Core
         ---------------------------------------------------------

  ==> Geometry <==

    Molecular point group: c1
    Full point group: C_inf_v

    Geometry (in Angstrom), charge = 0, multiplicity = 1:

       Center              X                  Y                   Z               Mass       
    ------------   -----------------  -----------------  -----------------  -----------------
         H            0.000000000000     0.000000000000     0.000000000000     1.007825032230
         H            0.000000000000     0.000000000000     1.000000000000     1.007825032230

  Running in c1 symmetry.

  Rotational constants: A = ************  B =     16.72674  C =     16.72674 [cm^-1]
  Rotational constants: A = ************  B = 501455.10648  C = 501455.10648 [MHz]
  Nuclear repulsion =    0.529177210670000

  Charge       = 0
  Multiplicity = 1
  Electrons    = 2
  Nalpha       = 1
  Nbeta        = 1

  ==> Algorithm <==

  SCF Algorithm Type is DF.
  DIIS enabled.
  MOM disabled.
  Fractional occupation disabled.
  Guess Type is SAD.
  Energy threshold   = 1.00e-12
  Density threshold  = 1.00e-12
  Integral threshold = 0.00e+00

  ==> Primary Basis <==

  Basis Set: CC-PVDZ
    Blend: CC-PVDZ
    Number of shells: 6
    Number of basis function: 10
    Number of Cartesian functions: 10
    Spherical Harmonics?: true
    Max angular momentum: 1

   => Loading Basis Set <=

    Name: AUG-CC-PV5Z-JKFIT
    Role: JKFIT
    Keyword: DF_BASIS_SCF
    atoms 1-2 entry H          line    70 file /Users/deprince/software/psi4/install/share/psi4/basis/aug-cc-pv5z-jkfit.gbs 

  ==> Integral Setup <==

  ==> DiskDFJK: Density-Fitted J/K Matrices <==

    J tasked:                  Yes
    K tasked:                  Yes
    wK tasked:                  No
    OpenMP threads:              1
    Integrals threads:           1
    Memory [MiB]:              375
    Algorithm:                Core
    Integral Cache:           SAVE
    Schwarz Cutoff:          1E-12
    Fitting Condition:       1E-10

   => Auxiliary Basis Set <=

  Basis Set: AUG-CC-PV5Z-JKFIT
    Blend: AUG-CC-PV5Z-JKFIT
    Number of shells: 46
    Number of basis function: 238
    Number of Cartesian functions: 348
    Spherical Harmonics?: true
    Max angular momentum: 5

  Minimum eigenvalue in the overlap matrix is 1.1235676082E-01.
  Reciprocal condition number of the overlap matrix is 3.8775501553E-02.
    Using symmetric orthogonalization.

  ==> Pre-Iterations <==

  SCF Guess: Superposition of Atomic Densities via on-the-fly atomic UHF (no occupation information).

   -------------------------
    Irrep   Nso     Nmo    
   -------------------------
     A         10      10 
   -------------------------
    Total      10      10
   -------------------------

  ==> Iterations <==

                           Total Energy        Delta E     RMS |[F,P]|

   @DF-UHF iter SAD:    -0.83821056487568   -8.38211e-01   0.00000e+00 
   @DF-UHF iter   1:    -1.09846593238539   -2.60255e-01   3.87307e-03 DIIS
   @DF-UHF iter   2:    -1.10010203886212   -1.63611e-03   6.74354e-04 DIIS
   @DF-UHF iter   3:    -1.10015397184081   -5.19330e-05   2.78947e-05 DIIS
   @DF-UHF iter   4:    -1.10015401963537   -4.77946e-08   3.01432e-07 DIIS
   @DF-UHF iter   5:    -1.10015401964575   -1.03788e-11   1.90425e-10 DIIS
   @DF-UHF iter   6:    -1.10015401964575    4.44089e-16   1.96826e-13 DIIS
  Energy and wave function converged.


  ==> Post-Iterations <==

   @Spin Contamination Metric:  -2.220446049E-15
   @S^2 Expected:                0.000000000E+00
   @S^2 Observed:               -2.220446049E-15
   @S   Expected:                0.000000000E+00
   @S   Observed:                0.000000000E+00

    Orbital Energies [Eh]
    ---------------------

    Alpha Occupied:                                                       

       1A     -0.525044  

    Alpha Virtual:                                                        

       2A      0.143586     3A      0.539606     4A      0.794796  
       5A      1.287138     6A      1.287138     7A      1.679169  
       8A      1.871556     9A      1.871556    10A      2.735413  

    Beta Occupied:                                                        

       1A     -0.525044  

    Beta Virtual:                                                         

       2A      0.143586     3A      0.539606     4A      0.794796  
       5A      1.287138     6A      1.287138     7A      1.679169  
       8A      1.871556     9A      1.871556    10A      2.735413  

    Final Occupation by Irrep:
              A 
    DOCC [     1 ]
    SOCC [     0 ]

  @DF-UHF Final Energy:    -1.10015401964575

   => Energetics <=

    Nuclear Repulsion Energy =              0.5291772106700000
    One-Electron Energy =                  -2.2085747999730918
    Two-Electron Energy =                   0.5792435696573407
    Total Energy =                         -1.1001540196457511

  UHF NO Occupations:
  HONO-0 :    1  A 2.0000000
  LUNO+0 :    2  A 0.0000000
  LUNO+1 :    3  A 0.0000000
  LUNO+2 :    4  A 0.0000000
  LUNO+3 :    5  A 0.0000000


Computation Completed


Properties will be evaluated at   0.000000,   0.000000,   0.000000 [a0]

Properties computed using the SCF density matrix

  Nuclear Dipole Moment: [e a0]
     X:     0.0000      Y:     0.0000      Z:     1.8897

  Electronic Dipole Moment: [e a0]
     X:    -0.0000      Y:    -0.0000      Z:    -1.8897

  Dipole Moment: [e a0]
     X:    -0.0000      Y:    -0.0000      Z:    -0.0000     Total:     0.0000

  Dipole Moment: [D]
     X:    -0.0000      Y:    -0.0000      Z:    -0.0000     Total:     0.0000


*** tstop() called on Alberts-MacBook-Pro.local at Wed Nov 25 12:37:28 2020
Module time:
	user time   =       0.19 seconds =       0.00 minutes
	system time =       0.01 seconds =       0.00 minutes
	total time  =          1 seconds =       0.02 minutes
Total time:
	user time   =       0.19 seconds =       0.00 minutes
	system time =       0.01 seconds =       0.00 minutes
	total time  =          1 seconds =       0.02 minutes
   => Loading Basis Set <=

    Name: AUG-CC-PV5Z-JKFIT
    Role: JKFIT
    Keyword: DF_BASIS_SCF
    atoms 1-2 entry H          line    70 file /Users/deprince/software/psi4/install/share/psi4/basis/aug-cc-pv5z-jkfit.gbs 

   => Loading Basis Set <=

    Name: AUG-CC-PV5Z-JKFIT
    Role: RIFIT
    Keyword: DF_BASIS_CC
    atoms 1-2 entry H          line    70 file /Users/deprince/software/psi4/install/share/psi4/basis/aug-cc-pv5z-jkfit.gbs 


Reading options from the HILBERT block
Calling plugin hilbert.so.


    Molecular point group: c1
    Full point group: C_inf_v

    Geometry (in Angstrom), charge = 0, multiplicity = 1:

       Center              X                  Y                   Z               Mass       
    ------------   -----------------  -----------------  -----------------  -----------------
         H            0.000000000000     0.000000000000     0.000000000000     1.007825032230
         H            0.000000000000     0.000000000000     1.000000000000     1.007825032230

  -AO BASIS SET INFORMATION:
    Name                   = CC-PVDZ
    Blend                  = CC-PVDZ
    Total number of shells = 6
    Number of primitives   = 10
    Number of AO           = 10
    Number of SO           = 10
    Maximum AM             = 1
    Spherical Harmonics    = TRUE

  -Contraction Scheme:
    Atom   Type   All Primitives // Shells:
   ------ ------ --------------------------
       1     H     4s 1p // 2s 1p 
       2     H     4s 1p // 2s 1p 

  ==> AO Basis Functions <==

    [ CC-PVDZ ]
    spherical
    ****
    H   1
    S   3 1.00
                        13.01000000           0.01968500
                         1.96200000           0.13797700
                         0.44460000           0.47814800
    S   1 1.00
                         0.12200000           1.00000000
    P   1 1.00
                         0.72700000           1.00000000
    ****
    H   2
    S   3 1.00
                        13.01000000           0.01968500
                         1.96200000           0.13797700
                         0.44460000           0.47814800
    S   1 1.00
                         0.12200000           1.00000000
    P   1 1.00
                         0.72700000           1.00000000
    ****



        *******************************************************
        *                                                     *
        *                                                     *
        *    Polaritonic UHF                                  *
        *                                                     *
        *                                                     *
        *******************************************************
    Molecular point group: c1
    Full point group: C_inf_v

    Geometry (in Angstrom), charge = 0, multiplicity = 1:

       Center              X                  Y                   Z               Mass       
    ------------   -----------------  -----------------  -----------------  -----------------
         H            0.000000000000     0.000000000000     0.000000000000     1.007825032230
         H            0.000000000000     0.000000000000     1.000000000000     1.007825032230

  -AO BASIS SET INFORMATION:
    Name                   = CC-PVDZ
    Blend                  = CC-PVDZ
    Total number of shells = 6
    Number of primitives   = 10
    Number of AO           = 10
    Number of SO           = 10
    Maximum AM             = 1
    Spherical Harmonics    = TRUE

  -Contraction Scheme:
    Atom   Type   All Primitives // Shells:
   ------ ------ --------------------------
       1     H     4s 1p // 2s 1p 
       2     H     4s 1p // 2s 1p 

  ==> AO Basis Functions <==

    [ CC-PVDZ ]
    spherical
    ****
    H   1
    S   3 1.00
                        13.01000000           0.01968500
                         1.96200000           0.13797700
                         0.44460000           0.47814800
    S   1 1.00
                         0.12200000           1.00000000
    P   1 1.00
                         0.72700000           1.00000000
    ****
    H   2
    S   3 1.00
                        13.01000000           0.01968500
                         1.96200000           0.13797700
                         0.44460000           0.47814800
    S   1 1.00
                         0.12200000           1.00000000
    P   1 1.00
                         0.72700000           1.00000000
    ****

    Molecular point group: c1
    Full point group: C_inf_v

    Geometry (in Angstrom), charge = 0, multiplicity = 1:

       Center              X                  Y                   Z               Mass       
    ------------   -----------------  -----------------  -----------------  -----------------
         H            0.000000000000     0.000000000000     0.000000000000     1.007825032230
         H            0.000000000000     0.000000000000     1.000000000000     1.007825032230

  -AO BASIS SET INFORMATION:
    Name                   = CC-PVDZ
    Blend                  = CC-PVDZ
    Total number of shells = 6
    Number of primitives   = 10
    Number of AO           = 10
    Number of SO           = 10
    Maximum AM             = 1
    Spherical Harmonics    = TRUE

  -Contraction Scheme:
    Atom   Type   All Primitives // Shells:
   ------ ------ --------------------------
       1     H     4s 1p // 2s 1p 
       2     H     4s 1p // 2s 1p 

  ==> AO Basis Functions <==

    [ CC-PVDZ ]
    spherical
    ****
    H   1
    S   3 1.00
                        13.01000000           0.01968500
                         1.96200000           0.13797700
                         0.44460000           0.47814800
    S   1 1.00
                         0.12200000           1.00000000
    P   1 1.00
                         0.72700000           1.00000000
    ****
    H   2
    S   3 1.00
                        13.01000000           0.01968500
                         1.96200000           0.13797700
                         0.44460000           0.47814800
    S   1 1.00
                         0.12200000           1.00000000
    P   1 1.00
                         0.72700000           1.00000000
    ****



        *******************************************************
        *                                                     *
        *                                                     *
        *    UCCSD                                            *
        *                                                     *
        *                                                     *
        *******************************************************

    ==> Hamiltonian type <==

        Hubbard

    ==>  Begin Hubbard SCF Iterations <==

    Guess energy:       -2.236067977500

     Iter               energy                   dE 
        0      -1.236139937501       0.999928039999
        1      -1.236139961696      -0.000000024195
        2      -1.236139961692       0.000000000004
        3      -1.236139961692      -0.000000000000

    Hubbard SCF iterations converged!

    * Hubbard SCF total energy:      -1.236139961692

    No. basis functions:                4
    No. auxiliary basis functions:  1882273560
    No. alpha electrons:                2
    No. beta electrons:                 2
    e_convergence:              1.000e-12
    r_convergence:              1.000e-05
    maxiter:                          500



    ==>  Begin CCSD Iterations <==

     Iter               energy                   dE                 |dT| 
        0      -1.444050473838      -1.444050473838       0.679965864932
        1      -1.429582864261       0.014467609577       0.130099581891
        2      -1.437365635999      -0.007782771738       0.054107587839
        3      -1.437977217858      -0.000611581859       0.006801723013
        4      -1.437954461143       0.000022756715       0.004637155568
        5      -1.437945515961       0.000008945182       0.001165440379
        6      -1.437957062650      -0.000011546689       0.000316820405
        7      -1.437956848928       0.000000213722       0.000008887631
        8      -1.437956827604       0.000000021324       0.000002797126
        9      -1.437956817960       0.000000009643       0.000001551564
       10      -1.437956828803      -0.000000010843       0.000001173047
       11      -1.437956822985       0.000000005818       0.000000078338
       12      -1.437956823299      -0.000000000314       0.000000006471
       13      -1.437956823418      -0.000000000119       0.000000001150
       14      -1.437956823411       0.000000000006       0.000000000139
       15      -1.437956823411       0.000000000000       0.000000000042

    CCSD iterations converged!

    * Polaritonic UCCSD total energy:      -1.437956823411
    QED-CCSD-1 vs CC-SD-S-DT..............................................................PASSED

    Psi4 stopped on: Wednesday, 25 November 2020 12:37PM
    Psi4 wall time for execution: 0:00:00.33

*** Psi4 exiting successfully. Buy a developer a beer!
