
    -----------------------------------------------------------------------
          Psi4: An Open-Source Ab Initio Electronic Structure Package
                               Psi4 1.10 

                         Git: Rev {HEAD} f2492db dirty


    D. G. A. Smith, L. A. Burns, A. C. Simmonett, R. M. Parrish,
    M. C. Schieber, R. Galvelis, P. Kraus, H. Kruse, R. Di Remigio,
    A. Alenaizan, A. M. James, S. Lehtola, J. P. Misiewicz, M. Scheurer,
    R. A. Shaw, J. B. Schriber, Y. Xie, Z. L. Glick, D. A. Sirianni,
    J. S. O'Brien, J. M. Waldrop, A. Kumar, E. G. Hohenstein,
    B. P. Pritchard, B. R. Brooks, H. F. Schaefer III, A. Yu. Sokolov,
    K. Patkowski, A. E. DePrince III, U. Bozkaya, R. A. King,
    F. A. Evangelista, J. M. Turney, T. D. Crawford, C. D. Sherrill,
    J. Chem. Phys. 152(18) 184108 (2020). https://doi.org/10.1063/5.0006002

                            Additional Code Authors
    E. T. Seidl, C. L. Janssen, E. F. Valeev, M. L. Leininger,
    J. F. Gonthier, R. M. Richard, H. R. McAlexander, M. Saitow, X. Wang,
    P. Verma, M. H. Lechner, A. Jiang, S. Behnle, A. G. Heide,
    M. F. Herbst, D. L. Poole, T. Győri, E. C. Mitchell, J. P. Pederson,
    and A. M. Wallace

             Previous Authors, Complete List of Code Contributors,
                       and Citations for Specific Modules
    https://github.com/psi4/psi4/blob/master/codemeta.json
    https://github.com/psi4/psi4/graphs/contributors
    https://psicode.org/psi4manual/master/introduction.html#citing-psifour

    -----------------------------------------------------------------------


    Psi4 started on: Thursday, 18 June 2026 04:46PM

    Process ID: 91142
    Host:       wc-dhcp22d225.employee-secure.wireless.fsu.edu
    PSIDATADIR: /Users/deprince/software/psi4/v1.10/psi4/install/share/psi4
    Memory:     500.0 MiB
    Threads:    1
    Addons:     a̶d̶c̶c̶, a̶m̶b̶i̶t̶, b̶s̶e̶, c̶c̶t̶3̶, c̶f̶o̶u̶r̶, c̶h̶e̶m̶p̶s̶2̶, c̶p̶p̶e̶, d̶d̶x̶,
                d̶f̶t̶d̶3̶, d̶f̶t̶d̶4̶, d̶k̶h̶, e̶c̶p̶i̶n̶t̶, e̶i̶n̶s̶u̶m̶s̶, f̶o̶r̶t̶e̶,
                g̶a̶u̶x̶c̶, g̶c̶p̶, g̶d̶m̶a̶, g̶e̶o̶m̶e̶t̶r̶i̶c̶, g̶p̶u̶_̶d̶f̶c̶c̶,
                i̶n̶t̶e̶g̶r̶a̶t̶o̶r̶x̶x̶, i̶p̶i̶, l̶i̶b̶e̶f̶p̶, m̶d̶i̶, m̶p̶2̶d̶, m̶r̶c̶c̶,
                o̶o̶o̶, o̶p̶e̶n̶f̶e̶r̶m̶i̶o̶n̶p̶s̶i̶4̶, p̶c̶m̶s̶o̶l̶v̶e̶r̶,
                p̶s̶i̶4̶f̶o̶c̶k̶c̶i̶, p̶s̶i̶x̶a̶s̶, r̶e̶s̶p̶, s̶i̶m̶i̶n̶t̶, s̶n̶s̶m̶p̶2̶,
                v̶2̶r̶d̶m̶_̶c̶a̶s̶s̶c̶f̶

  ==> Input File <==

--------------------------------------------------------------------------
# PYTHONPATH must include directory above plugin directory.
#     Define either externally or here, then import plugin.
sys.path.insert(0, '../../..')
import hilbert

molecule mol1 {
         O            0.000000000000     0.000000000000    -0.068516219320    
         H            0.000000000000    -0.790689573744     0.543701060715    
         H            0.000000000000     0.790689573744     0.543701060715    
no_reorient
nocom
symmetry c1
}
molecule mol2 {
         O             0.000000000000    -0.068516219320    0.000000000000    
         H            -0.790689573744     0.543701060715    0.000000000000    
         H             0.790689573744     0.543701060715    0.000000000000    
no_reorient
nocom
symmetry c1
}
molecule mol3 {
         O         -0.068516219320      0.000000000000     0.000000000000     
         H          0.543701060715      0.000000000000    -0.790689573744     
         H          0.543701060715      0.000000000000     0.790689573744     
no_reorient
nocom
symmetry c1
}

set {
  basis def2-tzvppd
  scf_type df 
  e_convergence 1e-10
  d_convergence 1e-10 
} 

# frequency: 2.0 eV
w = 0.07349864501573

# lambda: 0.05
# coupling g = 0.05 / sqrt(2*w)
g = 0.05 / np.sqrt(2.0 * w)

set {
  maxiter 500
  cavity_frequency         $w
  cavity_coupling_strength [0.0, 0.0, $g]
  qed_dft_functional tpssh
}

ref_dft = -76.453452994149

set reference uks
activate(mol1)
set basis def2-tzvppd
energy('qed-dft')

compare_values(ref_dft, variable("SCF TOTAL ENERGY"), 8, "QED-DFT total energy (z-pol)") # TEST

set reference uks
activate(mol2)
set basis def2-tzvppd
set hilbert {
    cavity_coupling_strength [0.0, $g, 0.0]
}
energy('qed-dft')

compare_values(ref_dft, variable("SCF TOTAL ENERGY"), 8, "QED-DFT total energy (y-pol)") # TEST

set reference uks
activate(mol3)
set basis def2-tzvppd
set hilbert {
    cavity_coupling_strength [$g, 0.0, 0.0]
}
energy('qed-dft')

compare_values(ref_dft, variable("SCF TOTAL ENERGY"), 8, "QED-DFT total energy (x-pol)") # TEST
--------------------------------------------------------------------------

Scratch directory: /Users/deprince/psi4_scratch/

Scratch directory: /Users/deprince/psi4_scratch/
   => Libint2 <=

    Primary   basis highest AM E, G, H:  5, 4, 3
    Auxiliary basis highest AM E, G, H:  6, 5, 4
    Onebody   basis highest AM E, G, H:  6, 5, 4
    Solid Harmonics ordering:            Gaussian

*** tstart() called on wc-dhcp22d225.employee-secure.wireless.fsu.edu
*** at Thu Jun 18 16:46:17 2026

   => Loading Basis Set <=

    Name: DEF2-TZVPPD
    Role: ORBITAL
    Keyword: BASIS
    atoms 1   entry O          line   218 file /Users/deprince/software/psi4/v1.10/psi4/install/share/psi4/basis/def2-tzvppd.gbs 
    atoms 2-3 entry H          line    14 file /Users/deprince/software/psi4/v1.10/psi4/install/share/psi4/basis/def2-tzvppd.gbs 


         ---------------------------------------------------------
                                   SCF
               by Justin Turney, Rob Parrish, Andy Simmonett
                          and Daniel G. A. Smith
                              UKS Reference
                        1 Threads,    500 MiB Core
         ---------------------------------------------------------

  ==> Geometry <==

    Molecular point group: c1
    Full point group: C2v

    Geometry (in Angstrom), charge = 0, multiplicity = 1:

       Center              X                  Y                   Z               Mass       
    ------------   -----------------  -----------------  -----------------  -----------------
         O            0.000000000000     0.000000000000    -0.068516219320    15.994914619570
         H            0.000000000000    -0.790689573744     0.543701060715     1.007825032230
         H            0.000000000000     0.790689573744     0.543701060715     1.007825032230

  Running in c1 symmetry.

  Rotational constants: A =     25.12555  B =     13.37733  C =      8.72955 [cm^-1]
  Rotational constants: A = 753245.07149  B = 401042.16706  C = 261705.25473 [MHz]
  Nuclear repulsion =    8.801465564563406

  Charge       = 0
  Multiplicity = 1
  Electrons    = 10
  Nalpha       = 5
  Nbeta        = 5

  ==> Algorithm <==

  SCF Algorithm Type is DF.
  DIIS enabled.
  MOM disabled.
  Fractional occupation disabled.
  Guess Type is SAD.
  Energy threshold   = 1.00e-10
  Density threshold  = 1.00e-10
  Integral threshold = 1.00e-12

  ==> Primary Basis <==

  Basis Set: DEF2-TZVPPD
    Blend: DEF2-TZVPPD
    Number of shells: 28
    Number of basis functions: 74
    Number of Cartesian functions: 82
    Spherical Harmonics?: true
    Max angular momentum: 3

  ==> DFT Potential <==

   => LibXC <=

    Version 7.0.0
    S. Lehtola, C. Steigemann, M. J.T. Oliveira, and M. A.L. Marques.,  SoftwareX 7, 1–5 (2018) (10.1016/j.softx.2017.11.002)

   => Composite Functional: TPSSH <= 

    TPSSh Hyb-GGA Exchange-Correlation Functional

    V. N. Staroverov, G. E. Scuseria, J. Tao, and J. P. Perdew.,  J. Chem. Phys. 119, 12129 (2003) (10.1063/1.1626543)

    Deriv               =              1
    GGA                 =           TRUE
    Meta                =           TRUE

    Exchange Hybrid     =           TRUE
    MP2 Hybrid          =          FALSE

   => Exchange Functionals <=

    0.9000   Tao, Perdew, Staroverov & Scuseria

   => Exact (HF) Exchange <=

    0.1000               HF 

   => Correlation Functionals <=

    1.0000   Tao, Perdew, Staroverov & Scuseria

   => LibXC Density Thresholds  <==

    XC_HYB_MGGA_XC_TPSSH:  1.00E-15 

   => Molecular Quadrature <=

    Radial Scheme          =       TREUTLER
    Pruning Scheme         =           NONE
    Nuclear Scheme         =       TREUTLER

    Blocking Scheme        =         OCTREE
    BS radius alpha        =              1
    Pruning alpha          =              1
    Radial Points          =             75
    Spherical Points       =            302
    Total Points           =          66724
    Total Blocks           =            557
    Max Points             =            255
    Max Functions          =             74
    Weights Tolerance      =       1.00E-15

   => Loading Basis Set <=

    Name: (DEF2-TZVPPD AUX)
    Role: JKFIT
    Keyword: DF_BASIS_SCF
    atoms 1   entry O          line   318 file /Users/deprince/software/psi4/v1.10/psi4/install/share/psi4/basis/def2-universal-jkfit.gbs 
    atoms 2-3 entry H          line    18 file /Users/deprince/software/psi4/v1.10/psi4/install/share/psi4/basis/def2-universal-jkfit.gbs 

  ==> Integral Setup <==

  DFHelper Memory: AOs need 0.006 GiB; user supplied 0.019 GiB. 
  SCF_SUBTYPE=INCORE selected. In-core MEM_DF algorithm will be used.
  Using in-core AOs.

  ==> MemDFJK: Density-Fitted J/K Matrices <==

    J tasked:                   Yes
    K tasked:                   Yes
    wK tasked:                   No
    OpenMP threads:               1
    Memory [MiB]:                19
    Algorithm:                 Core
    Schwarz Cutoff:           1E-12
    Mask sparsity (%):       0.0000
    Fitting Condition:        1E-10

   => Auxiliary Basis Set <=

  Basis Set: (DEF2-TZVPPD AUX)
    Blend: DEF2-UNIVERSAL-JKFIT
    Number of shells: 37
    Number of basis functions: 113
    Number of Cartesian functions: 133
    Spherical Harmonics?: true
    Max angular momentum: 4

  Cached 100.0% of DFT collocation blocks in 0.347 [GiB].

  Minimum eigenvalue in the overlap matrix is 7.8812021163E-04.
  Reciprocal condition number of the overlap matrix is 1.2268631735E-04.
    Using symmetric orthogonalization.

  ==> Pre-Iterations <==

  SCF Guess: Superposition of Atomic Densities via on-the-fly atomic UHF (no occupation information).

   -------------------------
    Irrep   Nso     Nmo    
   -------------------------
     A         74      74 
   -------------------------
    Total      74      74
   -------------------------

  ==> Iterations <==

                           Total Energy        Delta E     RMS |[F,P]|

   @DF-UKS iter SAD:   -76.62867977503433   -7.66287e+01   0.00000e+00 
   @DF-UKS iter   1:   -76.38825306087232    2.40427e-01   3.95163e-03 DIIS/ADIIS
   @DF-UKS iter   2:   -76.40438987563108   -1.61368e-02   5.40300e-03 DIIS/ADIIS
   @DF-UKS iter   3:   -76.45778855169885   -5.33987e-02   8.34404e-04 DIIS/ADIIS
   @DF-UKS iter   4:   -76.45891031602324   -1.12176e-03   3.34154e-04 DIIS/ADIIS
   @DF-UKS iter   5:   -76.45914029663444   -2.29981e-04   1.69280e-05 DIIS
   @DF-UKS iter   6:   -76.45914082750289   -5.30868e-07   7.30818e-07 DIIS
   @DF-UKS iter   7:   -76.45914082882730   -1.32441e-09   9.51320e-08 DIIS
   @DF-UKS iter   8:   -76.45914082884671   -1.94120e-11   6.75437e-09 DIIS
   @DF-UKS iter   9:   -76.45914082884693   -2.13163e-13   2.48880e-10 DIIS
   @DF-UKS iter  10:   -76.45914082884680    1.27898e-13   1.58120e-11 DIIS
  Energy and wave function converged.


  ==> Post-Iterations <==

   Electrons on quadrature grid:
      Nalpha   =    5.0000000031 ; deviation = 3.108e-09
      Nbeta    =    5.0000000031 ; deviation = 3.108e-09
      Ntotal   =   10.0000000062 ; deviation = 6.217e-09 

   @Spin Contamination Metric:  -2.398081733E-14
   @S^2 Expected:                0.000000000E+00
   @S^2 Observed:               -2.398081733E-14
   @S   Expected:                0.000000000E+00
   @S   Observed:                0.000000000E+00

    Orbital Energies [Eh]
    ---------------------

    Alpha Occupied:                                                       

       1A    -19.064970     2A     -0.978362     3A     -0.500624  
       4A     -0.370833     5A     -0.293116  

    Alpha Virtual:                                                        

       6A     -0.012230     7A      0.046495     8A      0.080046  
       9A      0.081773    10A      0.131238    11A      0.158702  
      12A      0.192397    13A      0.194785    14A      0.220133  
      15A      0.257452    16A      0.267982    17A      0.311739  
      18A      0.395987    19A      0.414696    20A      0.451833  
      21A      0.494368    22A      0.507448    23A      0.605338  
      24A      0.666736    25A      0.675740    26A      0.678041  
      27A      0.863236    28A      0.942103    29A      0.945592  
      30A      1.008757    31A      1.071862    32A      1.138944  
      33A      1.251297    34A      1.309959    35A      1.814278  
      36A      1.872035    37A      1.936286    38A      2.055809  
      39A      2.195283    40A      2.532896    41A      2.709943  
      42A      2.731306    43A      2.982260    44A      3.117846  
      45A      3.197205    46A      3.276303    47A      3.323515  
      48A      3.336227    49A      3.362111    50A      3.605539  
      51A      3.805825    52A      3.859815    53A      3.943143  
      54A      3.988523    55A      4.080444    56A      4.118340  
      57A      4.189121    58A      4.625184    59A      4.626979  
      60A      4.899912    61A      5.089950    62A      5.576311  
      63A      6.075576    64A      6.349695    65A      6.408641  
      66A      6.539171    67A      6.585497    68A      6.679207  
      69A      6.798710    70A      6.914134    71A      7.382475  
      72A      7.486332    73A      7.746431    74A     43.809546  

    Beta Occupied:                                                        

       1A    -19.064970     2A     -0.978362     3A     -0.500624  
       4A     -0.370833     5A     -0.293116  

    Beta Virtual:                                                         

       6A     -0.012230     7A      0.046495     8A      0.080046  
       9A      0.081773    10A      0.131238    11A      0.158702  
      12A      0.192397    13A      0.194785    14A      0.220133  
      15A      0.257452    16A      0.267982    17A      0.311739  
      18A      0.395987    19A      0.414696    20A      0.451833  
      21A      0.494368    22A      0.507448    23A      0.605338  
      24A      0.666736    25A      0.675740    26A      0.678041  
      27A      0.863236    28A      0.942103    29A      0.945592  
      30A      1.008757    31A      1.071862    32A      1.138944  
      33A      1.251297    34A      1.309959    35A      1.814278  
      36A      1.872035    37A      1.936286    38A      2.055809  
      39A      2.195283    40A      2.532896    41A      2.709943  
      42A      2.731306    43A      2.982260    44A      3.117846  
      45A      3.197205    46A      3.276303    47A      3.323515  
      48A      3.336227    49A      3.362111    50A      3.605539  
      51A      3.805825    52A      3.859815    53A      3.943143  
      54A      3.988523    55A      4.080444    56A      4.118340  
      57A      4.189121    58A      4.625184    59A      4.626979  
      60A      4.899912    61A      5.089950    62A      5.576311  
      63A      6.075576    64A      6.349695    65A      6.408641  
      66A      6.539171    67A      6.585497    68A      6.679207  
      69A      6.798710    70A      6.914134    71A      7.382475  
      72A      7.486332    73A      7.746431    74A     43.809546  

    Final Occupation by Irrep:
              A 
    DOCC [     5 ]
    SOCC [     0 ]
    NA   [     5 ]
    NB   [     5 ]

  @DF-UKS Final Energy:   -76.45914082884680

   => Energetics <=

    Nuclear Repulsion Energy =              8.8014655645634061
    One-Electron Energy =                -122.3530360130389738
    Two-Electron Energy =                  45.4971098691698117
    DFT Exchange-Correlation Energy =      -8.4046802495410251
    Empirical Dispersion Energy =           0.0000000000000000
    VV10 Nonlocal Energy =                  0.0000000000000000
    Total Energy =                        -76.4591408288467846

  UHF NO Occupations:
  HONO-2 :    3  A 2.0000000
  HONO-1 :    4  A 2.0000000
  HONO-0 :    5  A 2.0000000
  LUNO+0 :    6  A 0.0000000
  LUNO+1 :    7  A 0.0000000
  LUNO+2 :    8  A 0.0000000
  LUNO+3 :    9  A 0.0000000


Computation Completed


Properties will be evaluated at   0.000000,   0.000000,   0.000000 [a0]

Properties computed using the SCF density matrix


 Multipole Moments:

 ------------------------------------------------------------------------------------
     Multipole            Electronic (a.u.)      Nuclear  (a.u.)        Total (a.u.)
 ------------------------------------------------------------------------------------

 L = 1.  Multiply by 2.5417464519 to convert [e a0] to [Debye]
 Dipole X            :          0.0000000            0.0000000            0.0000000
 Dipole Y            :         -0.0000000            0.0000000           -0.0000000
 Dipole Z            :         -0.2932123            1.0190771            0.7258648
 Magnitude           :                                                    0.7258648

 ------------------------------------------------------------------------------------

*** tstop() called on wc-dhcp22d225.employee-secure.wireless.fsu.edu at Thu Jun 18 16:46:20 2026
Module time:
	user time   =       2.33 seconds =       0.04 minutes
	system time =       0.08 seconds =       0.00 minutes
	total time  =          3 seconds =       0.05 minutes
Total time:
	user time   =       2.33 seconds =       0.04 minutes
	system time =       0.08 seconds =       0.00 minutes
	total time  =          3 seconds =       0.05 minutes
   => Loading Basis Set <=

    Name: (DEF2-TZVPPD AUX)
    Role: JKFIT
    Keyword: DF_BASIS_SCF
    atoms 1   entry O          line   318 file /Users/deprince/software/psi4/v1.10/psi4/install/share/psi4/basis/def2-universal-jkfit.gbs 
    atoms 2-3 entry H          line    18 file /Users/deprince/software/psi4/v1.10/psi4/install/share/psi4/basis/def2-universal-jkfit.gbs 

   => Loading Basis Set <=

    Name: (DEF2-TZVPPD AUX)
    Role: RIFIT
    Keyword: DF_BASIS_CC
    atoms 1   entry O          line   333 file /Users/deprince/software/psi4/v1.10/psi4/install/share/psi4/basis/def2-tzvppd-ri.gbs 
    atoms 2-3 entry H          line    22 file /Users/deprince/software/psi4/v1.10/psi4/install/share/psi4/basis/def2-tzvppd-ri.gbs 


Reading options from the HILBERT block
Calling plugin hilbert.so.


Plugins that use gradients: set Da, Db, and Lagrangian for gradient theory on the wavefunction. The old way of passing these will stop working as soon as 1.8.    Molecular point group: c1
    Full point group: C2v

    Geometry (in Angstrom), charge = 0, multiplicity = 1:

       Center              X                  Y                   Z               Mass       
    ------------   -----------------  -----------------  -----------------  -----------------
         O            0.000000000000     0.000000000000    -0.068516219320    15.994914619570
         H            0.000000000000    -0.790689573744     0.543701060715     1.007825032230
         H            0.000000000000     0.790689573744     0.543701060715     1.007825032230

  -AO BASIS SET INFORMATION:
    Name                   = DEF2-TZVPPD
    Blend                  = DEF2-TZVPPD
    Total number of shells = 28
    Number of primitives   = 41
    Number of AO           = 82
    Number of SO           = 74
    Maximum AM             = 3
    Spherical Harmonics    = TRUE

  -Contraction Scheme:
    Atom   Type   All Primitives // Shells:
   ------ ------ --------------------------
       1     O     12s 7p 3d 1f // 6s 4p 3d 1f 
       2     H     5s 3p 1d // 3s 3p 1d 
       3     H     5s 3p 1d // 3s 3p 1d 

  ==> AO Basis Functions <==

    [ DEF2-TZVPPD ]
    spherical
    ****
    O   1
    S   6 1.00
                     27032.38263100           0.00021726
                      4052.38713920           0.00168387
                       922.32722710           0.00873956
                       261.24070989           0.03523997
                        85.35464135           0.11153519
                        31.03503524           0.25588954
    S   2 1.00
                        12.26086073           0.39768731
                         4.99870760           0.24627849
    S   1 1.00
                         1.17031082           1.00000000
    S   1 1.00
                         0.46474741           1.00000000
    S   1 1.00
                         0.18504536           1.00000000
    S   1 1.00
                         0.07028803           1.00000000
    P   4 1.00
                        63.27495480           0.00606851
                        14.62704938           0.04191258
                         4.45012235           0.16153841
                         1.52757996           0.35706951
    P   1 1.00
                         0.52935118           1.00000000
    P   1 1.00
                         0.17478421           1.00000000
    P   1 1.00
                         0.05111275           1.00000000
    D   1 1.00
                         2.31400000           1.00000000
    D   1 1.00
                         0.64500000           1.00000000
    D   1 1.00
                         0.14696477           1.00000000
    F   1 1.00
                         1.42800000           1.00000000
    ****
    H   2
    S   3 1.00
                        34.06134100           0.00602520
                         5.12357460           0.04502109
                         1.16466260           0.20189726
    S   1 1.00
                         0.32723041           1.00000000
    S   1 1.00
                         0.10307241           1.00000000
    P   1 1.00
                         1.40700000           1.00000000
    P   1 1.00
                         0.38800000           1.00000000
    P   1 1.00
                         0.09577413           1.00000000
    D   1 1.00
                         1.05700000           1.00000000
    ****
    H   3
    S   3 1.00
                        34.06134100           0.00602520
                         5.12357460           0.04502109
                         1.16466260           0.20189726
    S   1 1.00
                         0.32723041           1.00000000
    S   1 1.00
                         0.10307241           1.00000000
    P   1 1.00
                         1.40700000           1.00000000
    P   1 1.00
                         0.38800000           1.00000000
    P   1 1.00
                         0.09577413           1.00000000
    D   1 1.00
                         1.05700000           1.00000000
    ****



        *******************************************************
        *                                                     *
        *                                                     *
        *    Polaritonic UKS                                  *
        *                                                     *
        *                                                     *
        *******************************************************
    Molecular point group: c1
    Full point group: C2v

    Geometry (in Angstrom), charge = 0, multiplicity = 1:

       Center              X                  Y                   Z               Mass       
    ------------   -----------------  -----------------  -----------------  -----------------
         O            0.000000000000     0.000000000000    -0.068516219320    15.994914619570
         H            0.000000000000    -0.790689573744     0.543701060715     1.007825032230
         H            0.000000000000     0.790689573744     0.543701060715     1.007825032230

  -AO BASIS SET INFORMATION:
    Name                   = DEF2-TZVPPD
    Blend                  = DEF2-TZVPPD
    Total number of shells = 28
    Number of primitives   = 41
    Number of AO           = 82
    Number of SO           = 74
    Maximum AM             = 3
    Spherical Harmonics    = TRUE

  -Contraction Scheme:
    Atom   Type   All Primitives // Shells:
   ------ ------ --------------------------
       1     O     12s 7p 3d 1f // 6s 4p 3d 1f 
       2     H     5s 3p 1d // 3s 3p 1d 
       3     H     5s 3p 1d // 3s 3p 1d 

  ==> AO Basis Functions <==

    [ DEF2-TZVPPD ]
    spherical
    ****
    O   1
    S   6 1.00
                     27032.38263100           0.00021726
                      4052.38713920           0.00168387
                       922.32722710           0.00873956
                       261.24070989           0.03523997
                        85.35464135           0.11153519
                        31.03503524           0.25588954
    S   2 1.00
                        12.26086073           0.39768731
                         4.99870760           0.24627849
    S   1 1.00
                         1.17031082           1.00000000
    S   1 1.00
                         0.46474741           1.00000000
    S   1 1.00
                         0.18504536           1.00000000
    S   1 1.00
                         0.07028803           1.00000000
    P   4 1.00
                        63.27495480           0.00606851
                        14.62704938           0.04191258
                         4.45012235           0.16153841
                         1.52757996           0.35706951
    P   1 1.00
                         0.52935118           1.00000000
    P   1 1.00
                         0.17478421           1.00000000
    P   1 1.00
                         0.05111275           1.00000000
    D   1 1.00
                         2.31400000           1.00000000
    D   1 1.00
                         0.64500000           1.00000000
    D   1 1.00
                         0.14696477           1.00000000
    F   1 1.00
                         1.42800000           1.00000000
    ****
    H   2
    S   3 1.00
                        34.06134100           0.00602520
                         5.12357460           0.04502109
                         1.16466260           0.20189726
    S   1 1.00
                         0.32723041           1.00000000
    S   1 1.00
                         0.10307241           1.00000000
    P   1 1.00
                         1.40700000           1.00000000
    P   1 1.00
                         0.38800000           1.00000000
    P   1 1.00
                         0.09577413           1.00000000
    D   1 1.00
                         1.05700000           1.00000000
    ****
    H   3
    S   3 1.00
                        34.06134100           0.00602520
                         5.12357460           0.04502109
                         1.16466260           0.20189726
    S   1 1.00
                         0.32723041           1.00000000
    S   1 1.00
                         0.10307241           1.00000000
    P   1 1.00
                         1.40700000           1.00000000
    P   1 1.00
                         0.38800000           1.00000000
    P   1 1.00
                         0.09577413           1.00000000
    D   1 1.00
                         1.05700000           1.00000000
    ****

  ==> DFT Potential <==

   => LibXC <=

    Version 7.0.0
    S. Lehtola, C. Steigemann, M. J.T. Oliveira, and M. A.L. Marques.,  SoftwareX 7, 1–5 (2018) (10.1016/j.softx.2017.11.002)

   => Composite Functional: TPSSH <= 

    TPSSh Hyb-GGA Exchange-Correlation Functional

    V. N. Staroverov, G. E. Scuseria, J. Tao, and J. P. Perdew.,  J. Chem. Phys. 119, 12129 (2003) (10.1063/1.1626543)

    Deriv               =              1
    GGA                 =           TRUE
    Meta                =           TRUE

    Exchange Hybrid     =           TRUE
    MP2 Hybrid          =          FALSE

   => Exchange Functionals <=

    0.9000   Tao, Perdew, Staroverov & Scuseria

   => Exact (HF) Exchange <=

    0.1000               HF 

   => Correlation Functionals <=

    1.0000   Tao, Perdew, Staroverov & Scuseria

   => LibXC Density Thresholds  <==

    XC_HYB_MGGA_XC_TPSSH:  1.00E-15 

   => Molecular Quadrature <=

    Radial Scheme          =       TREUTLER
    Pruning Scheme         =           NONE
    Nuclear Scheme         =       TREUTLER

    Blocking Scheme        =         OCTREE
    BS radius alpha        =              1
    Pruning alpha          =              1
    Radial Points          =             75
    Spherical Points       =            302
    Total Points           =          66724
    Total Blocks           =            557
    Max Points             =            255
    Max Functions          =             74
    Weights Tolerance      =       1.00E-15


    No. basis functions:               74
    No. auxiliary basis functions:    113
    No. alpha electrons:                5
    No. beta electrons:                 5
    e_convergence:              1.000e-10
    d_convergence:              1.000e-10
    maxiter:                          500



    Guess energy:      -73.582850070262

    ==>  Begin SCF Iterations <==

     Iter               energy                   dE          RMS |[F,P]| 
        0     -76.453426515179      -2.870576444918       0.000059461228
        1     -76.453443041583      -0.000016526404       0.000071034785
        2     -76.453421584427       0.000021457156       0.000129543627
        3     -76.453353225700       0.000068358727       0.000231459711
        4     -76.453452993801      -0.000099768100       0.000000402157
        5     -76.453452994146      -0.000000000346       0.000000024232
        6     -76.453452994148      -0.000000000001       0.000000006859
        7     -76.453452994148      -0.000000000000       0.000000000368
        8     -76.453452994148       0.000000000000       0.000000000021

    SCF iterations converged!


    ==> dipole self-energy: 1/2 lambda^2 ( <mu_e^2> - <mu_e>^2 ) <==

    one-electron part;        0.008573777084
    two-electron part:       -0.002911692830
    total:                    0.005662084254


    ==> dipole integrals <== 

    <mu_x> =       0.000000000000
    <mu_y> =      -0.000000000000
    <mu_z> =      -0.287420493385


    ==> dipole variance: ( <mu_e^2> - <mu_e>^2 ) <== 

    one electron (xx):       5.822321526983
    one electron (xy):       0.000000000000
    one electron (xz):      -0.000000000000
    one electron (yy):       7.705328016494
    one electron (yz):       0.000000000000
    one electron (zz):       6.859021667267

    two electron (xx):      -1.787601319631
    two electron (xy):       0.000000000000
    two electron (xz):      -0.000000000000
    two electron (yy):      -2.834977654411
    two electron (yz):      -0.000000000000
    two electron (zz):      -2.329354264035

    total (xx):              4.034720207352
    total (xy):              0.000000000000
    total (xz):             -0.000000000000
    total (yy):              4.870350362083
    total (yz):              0.000000000000
    total (zz):              4.529667403232

    * Polaritonic UKS total energy:     -76.453452994148

    * Polaritonic Dipole Moment:       0.000000000000      -0.000000000000      -0.287420493385
    *     Nuclear Dipole Moment:       0.000000000000       0.000000000000       1.019077080412
    *       Total Dipole Moment:       0.000000000000      -0.000000000000       0.731656587027
    *                 Magnitude:       0.731656587027


 #  #
 Irrep: 1
      1:  -19.062235789046120
      2:   -0.977230305210594
      3:   -0.498514582083075
      4:   -0.368598464672667
      5:   -0.290846406341184
      6:   -0.003200169054532
      7:    0.054907304518279
      8:    0.087937354022751
      9:    0.104711560563764
     10:    0.140349760024232
     11:    0.170370066279431
     12:    0.198143455809301
     13:    0.207276537593880
     14:    0.229357389292150
     15:    0.269656070179802
     16:    0.279415340169106
     17:    0.320418959106813
     18:    0.405845484842706
     19:    0.425197474832554
     20:    0.457943446393876
     21:    0.505466716340619
     22:    0.512382725467639
     23:    0.611917486571192
     24:    0.673010263705635
     25:    0.682674571654751
     26:    0.683707739629522
     27:    0.868319909343463
     28:    0.945413798348302
     29:    0.951848222907782
     30:    1.012200002742393
     31:    1.078297886626737
     32:    1.144174778447892
     33:    1.256716957952292
     34:    1.315534192329682
     35:    1.817333376775323
     36:    1.874597784601183
     37:    1.939999219550435
     38:    2.059508874939361
     39:    2.199182933894551
     40:    2.536738752402243
     41:    2.713356987535798
     42:    2.734097364643001
     43:    2.985822624286323
     44:    3.120616140803784
     45:    3.199702292633035
     46:    3.279340234208529
     47:    3.326954502043863
     48:    3.339406417634034
     49:    3.364722687422891
     50:    3.608532340527521
     51:    3.808315879281149
     52:    3.862452677153454
     53:    3.946860811391948
     54:    3.991448730252704
     55:    4.082928805905710
     56:    4.121395970710133
     57:    4.192657348481710
     58:    4.628202267819026
     59:    4.629660746613955
     60:    4.902775481496476
     61:    5.092947298703477
     62:    5.578909374459479
     63:    6.078355815760534
     64:    6.352138851938518
     65:    6.410922208374257
     66:    6.541606276356505
     67:    6.588155263096341
     68:    6.682404623358896
     69:    6.801213517216113
     70:    6.916587980983008
     71:    7.385370985548394
     72:    7.489045375720508
     73:    7.749150035215247
     74:   43.812339013356521


 #  #
 Irrep: 1
      1:  -19.062235789046131
      2:   -0.977230305210598
      3:   -0.498514582083075
      4:   -0.368598464672665
      5:   -0.290846406341187
      6:   -0.003200169054533
      7:    0.054907304518276
      8:    0.087937354022758
      9:    0.104711560563762
     10:    0.140349760024233
     11:    0.170370066279429
     12:    0.198143455809303
     13:    0.207276537593876
     14:    0.229357389292151
     15:    0.269656070179802
     16:    0.279415340169084
     17:    0.320418959106793
     18:    0.405845484842658
     19:    0.425197474832536
     20:    0.457943446393884
     21:    0.505466716340611
     22:    0.512382725467638
     23:    0.611917486571179
     24:    0.673010263705603
     25:    0.682674571654754
     26:    0.683707739629503
     27:    0.868319909343380
     28:    0.945413798348306
     29:    0.951848222907762
     30:    1.012200002742402
     31:    1.078297886626743
     32:    1.144174778447856
     33:    1.256716957952257
     34:    1.315534192329655
     35:    1.817333376775322
     36:    1.874597784601183
     37:    1.939999219550434
     38:    2.059508874939368
     39:    2.199182933894431
     40:    2.536738752402317
     41:    2.713356987535759
     42:    2.734097364642996
     43:    2.985822624286313
     44:    3.120616140803784
     45:    3.199702292633052
     46:    3.279340234208541
     47:    3.326954502043979
     48:    3.339406417634035
     49:    3.364722687422885
     50:    3.608532340527519
     51:    3.808315879281147
     52:    3.862452677153458
     53:    3.946860811391956
     54:    3.991448730252718
     55:    4.082928805905723
     56:    4.121395970710117
     57:    4.192657348481705
     58:    4.628202267819026
     59:    4.629660746613938
     60:    4.902775481496450
     61:    5.092947298703532
     62:    5.578909374459480
     63:    6.078355815760538
     64:    6.352138851938517
     65:    6.410922208374255
     66:    6.541606276356504
     67:    6.588155263096346
     68:    6.682404623358904
     69:    6.801213517216123
     70:    6.916587980983008
     71:    7.385370985548401
     72:    7.489045375720494
     73:    7.749150035215337
     74:   43.812339013356535

    QED-DFT total energy (z-pol)..........................................................PASSED

Scratch directory: /Users/deprince/psi4_scratch/

Scratch directory: /Users/deprince/psi4_scratch/
   => Libint2 <=

    Primary   basis highest AM E, G, H:  5, 4, 3
    Auxiliary basis highest AM E, G, H:  6, 5, 4
    Onebody   basis highest AM E, G, H:  6, 5, 4
    Solid Harmonics ordering:            Gaussian

*** tstart() called on wc-dhcp22d225.employee-secure.wireless.fsu.edu
*** at Thu Jun 18 16:46:22 2026

   => Loading Basis Set <=

    Name: DEF2-TZVPPD
    Role: ORBITAL
    Keyword: BASIS
    atoms 1   entry O          line   218 file /Users/deprince/software/psi4/v1.10/psi4/install/share/psi4/basis/def2-tzvppd.gbs 
    atoms 2-3 entry H          line    14 file /Users/deprince/software/psi4/v1.10/psi4/install/share/psi4/basis/def2-tzvppd.gbs 


         ---------------------------------------------------------
                                   SCF
               by Justin Turney, Rob Parrish, Andy Simmonett
                          and Daniel G. A. Smith
                              UKS Reference
                        1 Threads,    500 MiB Core
         ---------------------------------------------------------

  ==> Geometry <==

    Molecular point group: c1
    Full point group: C2v

    Geometry (in Angstrom), charge = 0, multiplicity = 1:

       Center              X                  Y                   Z               Mass       
    ------------   -----------------  -----------------  -----------------  -----------------
         O            0.000000000000    -0.068516219320     0.000000000000    15.994914619570
         H           -0.790689573744     0.543701060715     0.000000000000     1.007825032230
         H            0.790689573744     0.543701060715     0.000000000000     1.007825032230

  Running in c1 symmetry.

  Rotational constants: A =     25.12555  B =     13.37733  C =      8.72955 [cm^-1]
  Rotational constants: A = 753245.07149  B = 401042.16706  C = 261705.25473 [MHz]
  Nuclear repulsion =    8.801465564563404

  Charge       = 0
  Multiplicity = 1
  Electrons    = 10
  Nalpha       = 5
  Nbeta        = 5

  ==> Algorithm <==

  SCF Algorithm Type is DF.
  DIIS enabled.
  MOM disabled.
  Fractional occupation disabled.
  Guess Type is SAD.
  Energy threshold   = 1.00e-10
  Density threshold  = 1.00e-10
  Integral threshold = 1.00e-12

  ==> Primary Basis <==

  Basis Set: DEF2-TZVPPD
    Blend: DEF2-TZVPPD
    Number of shells: 28
    Number of basis functions: 74
    Number of Cartesian functions: 82
    Spherical Harmonics?: true
    Max angular momentum: 3

  ==> DFT Potential <==

   => LibXC <=

    Version 7.0.0
    S. Lehtola, C. Steigemann, M. J.T. Oliveira, and M. A.L. Marques.,  SoftwareX 7, 1–5 (2018) (10.1016/j.softx.2017.11.002)

   => Composite Functional: TPSSH <= 

    TPSSh Hyb-GGA Exchange-Correlation Functional

    V. N. Staroverov, G. E. Scuseria, J. Tao, and J. P. Perdew.,  J. Chem. Phys. 119, 12129 (2003) (10.1063/1.1626543)

    Deriv               =              1
    GGA                 =           TRUE
    Meta                =           TRUE

    Exchange Hybrid     =           TRUE
    MP2 Hybrid          =          FALSE

   => Exchange Functionals <=

    0.9000   Tao, Perdew, Staroverov & Scuseria

   => Exact (HF) Exchange <=

    0.1000               HF 

   => Correlation Functionals <=

    1.0000   Tao, Perdew, Staroverov & Scuseria

   => LibXC Density Thresholds  <==

    XC_HYB_MGGA_XC_TPSSH:  1.00E-15 

   => Molecular Quadrature <=

    Radial Scheme          =       TREUTLER
    Pruning Scheme         =           NONE
    Nuclear Scheme         =       TREUTLER

    Blocking Scheme        =         OCTREE
    BS radius alpha        =              1
    Pruning alpha          =              1
    Radial Points          =             75
    Spherical Points       =            302
    Total Points           =          66726
    Total Blocks           =            562
    Max Points             =            256
    Max Functions          =             74
    Weights Tolerance      =       1.00E-15

   => Loading Basis Set <=

    Name: (DEF2-TZVPPD AUX)
    Role: JKFIT
    Keyword: DF_BASIS_SCF
    atoms 1   entry O          line   318 file /Users/deprince/software/psi4/v1.10/psi4/install/share/psi4/basis/def2-universal-jkfit.gbs 
    atoms 2-3 entry H          line    18 file /Users/deprince/software/psi4/v1.10/psi4/install/share/psi4/basis/def2-universal-jkfit.gbs 

  ==> Integral Setup <==

  DFHelper Memory: AOs need 0.006 GiB; user supplied 0.018 GiB. 
  SCF_SUBTYPE=INCORE selected. In-core MEM_DF algorithm will be used.
  Using in-core AOs.

  ==> MemDFJK: Density-Fitted J/K Matrices <==

    J tasked:                   Yes
    K tasked:                   Yes
    wK tasked:                   No
    OpenMP threads:               1
    Memory [MiB]:                18
    Algorithm:                 Core
    Schwarz Cutoff:           1E-12
    Mask sparsity (%):       0.0000
    Fitting Condition:        1E-10

   => Auxiliary Basis Set <=

  Basis Set: (DEF2-TZVPPD AUX)
    Blend: DEF2-UNIVERSAL-JKFIT
    Number of shells: 37
    Number of basis functions: 113
    Number of Cartesian functions: 133
    Spherical Harmonics?: true
    Max angular momentum: 4

  Cached 100.0% of DFT collocation blocks in 0.348 [GiB].

  Minimum eigenvalue in the overlap matrix is 7.8812021163E-04.
  Reciprocal condition number of the overlap matrix is 1.2268631735E-04.
    Using symmetric orthogonalization.

  ==> Pre-Iterations <==

  SCF Guess: Superposition of Atomic Densities via on-the-fly atomic UHF (no occupation information).

   -------------------------
    Irrep   Nso     Nmo    
   -------------------------
     A         74      74 
   -------------------------
    Total      74      74
   -------------------------

  ==> Iterations <==

                           Total Energy        Delta E     RMS |[F,P]|

   @DF-UKS iter SAD:   -76.62867977503471   -7.66287e+01   0.00000e+00 
   @DF-UKS iter   1:   -76.38825306087286    2.40427e-01   3.95163e-03 DIIS/ADIIS
   @DF-UKS iter   2:   -76.40438987563158   -1.61368e-02   5.40300e-03 DIIS/ADIIS
   @DF-UKS iter   3:   -76.45778855169934   -5.33987e-02   8.34404e-04 DIIS/ADIIS
   @DF-UKS iter   4:   -76.45891031602372   -1.12176e-03   3.34154e-04 DIIS/ADIIS
   @DF-UKS iter   5:   -76.45914029663497   -2.29981e-04   1.69280e-05 DIIS
   @DF-UKS iter   6:   -76.45914082750342   -5.30868e-07   7.30818e-07 DIIS
   @DF-UKS iter   7:   -76.45914082882784   -1.32442e-09   9.51320e-08 DIIS
   @DF-UKS iter   8:   -76.45914082884721   -1.93694e-11   6.75437e-09 DIIS
   @DF-UKS iter   9:   -76.45914082884728   -7.10543e-14   2.48880e-10 DIIS
   @DF-UKS iter  10:   -76.45914082884728    0.00000e+00   1.58109e-11 DIIS
  Energy and wave function converged.


  ==> Post-Iterations <==

   Electrons on quadrature grid:
      Nalpha   =    5.0000000031 ; deviation = 3.108e-09
      Nbeta    =    5.0000000031 ; deviation = 3.108e-09
      Ntotal   =   10.0000000062 ; deviation = 6.217e-09 

   @Spin Contamination Metric:  -2.930988785E-14
   @S^2 Expected:                0.000000000E+00
   @S^2 Observed:               -2.930988785E-14
   @S   Expected:                0.000000000E+00
   @S   Observed:                0.000000000E+00

    Orbital Energies [Eh]
    ---------------------

    Alpha Occupied:                                                       

       1A    -19.064970     2A     -0.978362     3A     -0.500624  
       4A     -0.370833     5A     -0.293116  

    Alpha Virtual:                                                        

       6A     -0.012230     7A      0.046495     8A      0.080046  
       9A      0.081773    10A      0.131238    11A      0.158702  
      12A      0.192397    13A      0.194785    14A      0.220133  
      15A      0.257452    16A      0.267982    17A      0.311739  
      18A      0.395987    19A      0.414696    20A      0.451833  
      21A      0.494368    22A      0.507448    23A      0.605338  
      24A      0.666736    25A      0.675740    26A      0.678041  
      27A      0.863236    28A      0.942103    29A      0.945592  
      30A      1.008757    31A      1.071862    32A      1.138944  
      33A      1.251297    34A      1.309959    35A      1.814278  
      36A      1.872035    37A      1.936286    38A      2.055809  
      39A      2.195283    40A      2.532896    41A      2.709943  
      42A      2.731306    43A      2.982260    44A      3.117846  
      45A      3.197205    46A      3.276303    47A      3.323515  
      48A      3.336227    49A      3.362111    50A      3.605539  
      51A      3.805825    52A      3.859815    53A      3.943143  
      54A      3.988523    55A      4.080444    56A      4.118340  
      57A      4.189121    58A      4.625184    59A      4.626979  
      60A      4.899912    61A      5.089950    62A      5.576311  
      63A      6.075576    64A      6.349695    65A      6.408641  
      66A      6.539171    67A      6.585497    68A      6.679207  
      69A      6.798710    70A      6.914134    71A      7.382475  
      72A      7.486332    73A      7.746431    74A     43.809546  

    Beta Occupied:                                                        

       1A    -19.064970     2A     -0.978362     3A     -0.500624  
       4A     -0.370833     5A     -0.293116  

    Beta Virtual:                                                         

       6A     -0.012230     7A      0.046495     8A      0.080046  
       9A      0.081773    10A      0.131238    11A      0.158702  
      12A      0.192397    13A      0.194785    14A      0.220133  
      15A      0.257452    16A      0.267982    17A      0.311739  
      18A      0.395987    19A      0.414696    20A      0.451833  
      21A      0.494368    22A      0.507448    23A      0.605338  
      24A      0.666736    25A      0.675740    26A      0.678041  
      27A      0.863236    28A      0.942103    29A      0.945592  
      30A      1.008757    31A      1.071862    32A      1.138944  
      33A      1.251297    34A      1.309959    35A      1.814278  
      36A      1.872035    37A      1.936286    38A      2.055809  
      39A      2.195283    40A      2.532896    41A      2.709943  
      42A      2.731306    43A      2.982260    44A      3.117846  
      45A      3.197205    46A      3.276303    47A      3.323515  
      48A      3.336227    49A      3.362111    50A      3.605539  
      51A      3.805825    52A      3.859815    53A      3.943143  
      54A      3.988523    55A      4.080444    56A      4.118340  
      57A      4.189121    58A      4.625184    59A      4.626979  
      60A      4.899912    61A      5.089950    62A      5.576311  
      63A      6.075576    64A      6.349695    65A      6.408641  
      66A      6.539171    67A      6.585497    68A      6.679207  
      69A      6.798710    70A      6.914134    71A      7.382475  
      72A      7.486332    73A      7.746431    74A     43.809546  

    Final Occupation by Irrep:
              A 
    DOCC [     5 ]
    SOCC [     0 ]
    NA   [     5 ]
    NB   [     5 ]

  @DF-UKS Final Energy:   -76.45914082884728

   => Energetics <=

    Nuclear Repulsion Energy =              8.8014655645634043
    One-Electron Energy =                -122.3530360130403665
    Two-Electron Energy =                  45.4971098691708349
    DFT Exchange-Correlation Energy =      -8.4046802495411566
    Empirical Dispersion Energy =           0.0000000000000000
    VV10 Nonlocal Energy =                  0.0000000000000000
    Total Energy =                        -76.4591408288472820

  UHF NO Occupations:
  HONO-2 :    3  A 2.0000000
  HONO-1 :    4  A 2.0000000
  HONO-0 :    5  A 2.0000000
  LUNO+0 :    6  A 0.0000000
  LUNO+1 :    7  A 0.0000000
  LUNO+2 :    8  A 0.0000000
  LUNO+3 :    9  A 0.0000000


Computation Completed


Properties will be evaluated at   0.000000,   0.000000,   0.000000 [a0]

Properties computed using the SCF density matrix


 Multipole Moments:

 ------------------------------------------------------------------------------------
     Multipole            Electronic (a.u.)      Nuclear  (a.u.)        Total (a.u.)
 ------------------------------------------------------------------------------------

 L = 1.  Multiply by 2.5417464519 to convert [e a0] to [Debye]
 Dipole X            :          0.0000000            0.0000000            0.0000000
 Dipole Y            :         -0.2932123            1.0190771            0.7258648
 Dipole Z            :         -0.0000000            0.0000000           -0.0000000
 Magnitude           :                                                    0.7258648

 ------------------------------------------------------------------------------------

*** tstop() called on wc-dhcp22d225.employee-secure.wireless.fsu.edu at Thu Jun 18 16:46:24 2026
Module time:
	user time   =       2.11 seconds =       0.04 minutes
	system time =       0.05 seconds =       0.00 minutes
	total time  =          2 seconds =       0.03 minutes
Total time:
	user time   =       6.65 seconds =       0.11 minutes
	system time =       0.16 seconds =       0.00 minutes
	total time  =          7 seconds =       0.12 minutes
   => Loading Basis Set <=

    Name: (DEF2-TZVPPD AUX)
    Role: JKFIT
    Keyword: DF_BASIS_SCF
    atoms 1   entry O          line   318 file /Users/deprince/software/psi4/v1.10/psi4/install/share/psi4/basis/def2-universal-jkfit.gbs 
    atoms 2-3 entry H          line    18 file /Users/deprince/software/psi4/v1.10/psi4/install/share/psi4/basis/def2-universal-jkfit.gbs 

   => Loading Basis Set <=

    Name: (DEF2-TZVPPD AUX)
    Role: RIFIT
    Keyword: DF_BASIS_CC
    atoms 1   entry O          line   333 file /Users/deprince/software/psi4/v1.10/psi4/install/share/psi4/basis/def2-tzvppd-ri.gbs 
    atoms 2-3 entry H          line    22 file /Users/deprince/software/psi4/v1.10/psi4/install/share/psi4/basis/def2-tzvppd-ri.gbs 


Reading options from the HILBERT block
Calling plugin hilbert.so.


Plugins that use gradients: set Da, Db, and Lagrangian for gradient theory on the wavefunction. The old way of passing these will stop working as soon as 1.8.    Molecular point group: c1
    Full point group: C2v

    Geometry (in Angstrom), charge = 0, multiplicity = 1:

       Center              X                  Y                   Z               Mass       
    ------------   -----------------  -----------------  -----------------  -----------------
         O            0.000000000000    -0.068516219320     0.000000000000    15.994914619570
         H           -0.790689573744     0.543701060715     0.000000000000     1.007825032230
         H            0.790689573744     0.543701060715     0.000000000000     1.007825032230

  -AO BASIS SET INFORMATION:
    Name                   = DEF2-TZVPPD
    Blend                  = DEF2-TZVPPD
    Total number of shells = 28
    Number of primitives   = 41
    Number of AO           = 82
    Number of SO           = 74
    Maximum AM             = 3
    Spherical Harmonics    = TRUE

  -Contraction Scheme:
    Atom   Type   All Primitives // Shells:
   ------ ------ --------------------------
       1     O     12s 7p 3d 1f // 6s 4p 3d 1f 
       2     H     5s 3p 1d // 3s 3p 1d 
       3     H     5s 3p 1d // 3s 3p 1d 

  ==> AO Basis Functions <==

    [ DEF2-TZVPPD ]
    spherical
    ****
    O   1
    S   6 1.00
                     27032.38263100           0.00021726
                      4052.38713920           0.00168387
                       922.32722710           0.00873956
                       261.24070989           0.03523997
                        85.35464135           0.11153519
                        31.03503524           0.25588954
    S   2 1.00
                        12.26086073           0.39768731
                         4.99870760           0.24627849
    S   1 1.00
                         1.17031082           1.00000000
    S   1 1.00
                         0.46474741           1.00000000
    S   1 1.00
                         0.18504536           1.00000000
    S   1 1.00
                         0.07028803           1.00000000
    P   4 1.00
                        63.27495480           0.00606851
                        14.62704938           0.04191258
                         4.45012235           0.16153841
                         1.52757996           0.35706951
    P   1 1.00
                         0.52935118           1.00000000
    P   1 1.00
                         0.17478421           1.00000000
    P   1 1.00
                         0.05111275           1.00000000
    D   1 1.00
                         2.31400000           1.00000000
    D   1 1.00
                         0.64500000           1.00000000
    D   1 1.00
                         0.14696477           1.00000000
    F   1 1.00
                         1.42800000           1.00000000
    ****
    H   2
    S   3 1.00
                        34.06134100           0.00602520
                         5.12357460           0.04502109
                         1.16466260           0.20189726
    S   1 1.00
                         0.32723041           1.00000000
    S   1 1.00
                         0.10307241           1.00000000
    P   1 1.00
                         1.40700000           1.00000000
    P   1 1.00
                         0.38800000           1.00000000
    P   1 1.00
                         0.09577413           1.00000000
    D   1 1.00
                         1.05700000           1.00000000
    ****
    H   3
    S   3 1.00
                        34.06134100           0.00602520
                         5.12357460           0.04502109
                         1.16466260           0.20189726
    S   1 1.00
                         0.32723041           1.00000000
    S   1 1.00
                         0.10307241           1.00000000
    P   1 1.00
                         1.40700000           1.00000000
    P   1 1.00
                         0.38800000           1.00000000
    P   1 1.00
                         0.09577413           1.00000000
    D   1 1.00
                         1.05700000           1.00000000
    ****



        *******************************************************
        *                                                     *
        *                                                     *
        *    Polaritonic UKS                                  *
        *                                                     *
        *                                                     *
        *******************************************************
    Molecular point group: c1
    Full point group: C2v

    Geometry (in Angstrom), charge = 0, multiplicity = 1:

       Center              X                  Y                   Z               Mass       
    ------------   -----------------  -----------------  -----------------  -----------------
         O            0.000000000000    -0.068516219320     0.000000000000    15.994914619570
         H           -0.790689573744     0.543701060715     0.000000000000     1.007825032230
         H            0.790689573744     0.543701060715     0.000000000000     1.007825032230

  -AO BASIS SET INFORMATION:
    Name                   = DEF2-TZVPPD
    Blend                  = DEF2-TZVPPD
    Total number of shells = 28
    Number of primitives   = 41
    Number of AO           = 82
    Number of SO           = 74
    Maximum AM             = 3
    Spherical Harmonics    = TRUE

  -Contraction Scheme:
    Atom   Type   All Primitives // Shells:
   ------ ------ --------------------------
       1     O     12s 7p 3d 1f // 6s 4p 3d 1f 
       2     H     5s 3p 1d // 3s 3p 1d 
       3     H     5s 3p 1d // 3s 3p 1d 

  ==> AO Basis Functions <==

    [ DEF2-TZVPPD ]
    spherical
    ****
    O   1
    S   6 1.00
                     27032.38263100           0.00021726
                      4052.38713920           0.00168387
                       922.32722710           0.00873956
                       261.24070989           0.03523997
                        85.35464135           0.11153519
                        31.03503524           0.25588954
    S   2 1.00
                        12.26086073           0.39768731
                         4.99870760           0.24627849
    S   1 1.00
                         1.17031082           1.00000000
    S   1 1.00
                         0.46474741           1.00000000
    S   1 1.00
                         0.18504536           1.00000000
    S   1 1.00
                         0.07028803           1.00000000
    P   4 1.00
                        63.27495480           0.00606851
                        14.62704938           0.04191258
                         4.45012235           0.16153841
                         1.52757996           0.35706951
    P   1 1.00
                         0.52935118           1.00000000
    P   1 1.00
                         0.17478421           1.00000000
    P   1 1.00
                         0.05111275           1.00000000
    D   1 1.00
                         2.31400000           1.00000000
    D   1 1.00
                         0.64500000           1.00000000
    D   1 1.00
                         0.14696477           1.00000000
    F   1 1.00
                         1.42800000           1.00000000
    ****
    H   2
    S   3 1.00
                        34.06134100           0.00602520
                         5.12357460           0.04502109
                         1.16466260           0.20189726
    S   1 1.00
                         0.32723041           1.00000000
    S   1 1.00
                         0.10307241           1.00000000
    P   1 1.00
                         1.40700000           1.00000000
    P   1 1.00
                         0.38800000           1.00000000
    P   1 1.00
                         0.09577413           1.00000000
    D   1 1.00
                         1.05700000           1.00000000
    ****
    H   3
    S   3 1.00
                        34.06134100           0.00602520
                         5.12357460           0.04502109
                         1.16466260           0.20189726
    S   1 1.00
                         0.32723041           1.00000000
    S   1 1.00
                         0.10307241           1.00000000
    P   1 1.00
                         1.40700000           1.00000000
    P   1 1.00
                         0.38800000           1.00000000
    P   1 1.00
                         0.09577413           1.00000000
    D   1 1.00
                         1.05700000           1.00000000
    ****

  ==> DFT Potential <==

   => LibXC <=

    Version 7.0.0
    S. Lehtola, C. Steigemann, M. J.T. Oliveira, and M. A.L. Marques.,  SoftwareX 7, 1–5 (2018) (10.1016/j.softx.2017.11.002)

   => Composite Functional: TPSSH <= 

    TPSSh Hyb-GGA Exchange-Correlation Functional

    V. N. Staroverov, G. E. Scuseria, J. Tao, and J. P. Perdew.,  J. Chem. Phys. 119, 12129 (2003) (10.1063/1.1626543)

    Deriv               =              1
    GGA                 =           TRUE
    Meta                =           TRUE

    Exchange Hybrid     =           TRUE
    MP2 Hybrid          =          FALSE

   => Exchange Functionals <=

    0.9000   Tao, Perdew, Staroverov & Scuseria

   => Exact (HF) Exchange <=

    0.1000               HF 

   => Correlation Functionals <=

    1.0000   Tao, Perdew, Staroverov & Scuseria

   => LibXC Density Thresholds  <==

    XC_HYB_MGGA_XC_TPSSH:  1.00E-15 

   => Molecular Quadrature <=

    Radial Scheme          =       TREUTLER
    Pruning Scheme         =           NONE
    Nuclear Scheme         =       TREUTLER

    Blocking Scheme        =         OCTREE
    BS radius alpha        =              1
    Pruning alpha          =              1
    Radial Points          =             75
    Spherical Points       =            302
    Total Points           =          66726
    Total Blocks           =            562
    Max Points             =            256
    Max Functions          =             74
    Weights Tolerance      =       1.00E-15


    No. basis functions:               74
    No. auxiliary basis functions:    113
    No. alpha electrons:                5
    No. beta electrons:                 5
    e_convergence:              1.000e-10
    d_convergence:              1.000e-10
    maxiter:                          500



    Guess energy:      -73.582850070262

    ==>  Begin SCF Iterations <==

     Iter               energy                   dE          RMS |[F,P]| 
        0     -76.453426515180      -2.870576444918       0.000059461228
        1     -76.453443041584      -0.000016526404       0.000071034785
        2     -76.453421584427       0.000021457156       0.000129543627
        3     -76.453353225701       0.000068358726       0.000231459711
        4     -76.453452993801      -0.000099768100       0.000000402157
        5     -76.453452994147      -0.000000000346       0.000000024232
        6     -76.453452994148      -0.000000000001       0.000000006859
        7     -76.453452994148      -0.000000000000       0.000000000368
        8     -76.453452994148      -0.000000000000       0.000000000021

    SCF iterations converged!


    ==> dipole self-energy: 1/2 lambda^2 ( <mu_e^2> - <mu_e>^2 ) <==

    one-electron part;        0.008573777084
    two-electron part:       -0.002911692830
    total:                    0.005662084254


    ==> dipole integrals <== 

    <mu_x> =       0.000000000000
    <mu_y> =      -0.287420493384
    <mu_z> =      -0.000000000000


    ==> dipole variance: ( <mu_e^2> - <mu_e>^2 ) <== 

    one electron (xx):       7.705328016494
    one electron (xy):      -0.000000000000
    one electron (xz):       0.000000000000
    one electron (yy):       6.859021667266
    one electron (yz):       0.000000000000
    one electron (zz):       5.822321526984

    two electron (xx):      -2.834977654411
    two electron (xy):       0.000000000000
    two electron (xz):       0.000000000000
    two electron (yy):      -2.329354264036
    two electron (yz):       0.000000000000
    two electron (zz):      -1.787601319632

    total (xx):              4.870350362082
    total (xy):             -0.000000000000
    total (xz):              0.000000000000
    total (yy):              4.529667403230
    total (yz):              0.000000000000
    total (zz):              4.034720207352

    * Polaritonic UKS total energy:     -76.453452994148

    * Polaritonic Dipole Moment:       0.000000000000      -0.287420493384      -0.000000000000
    *     Nuclear Dipole Moment:       0.000000000000       1.019077080412       0.000000000000
    *       Total Dipole Moment:       0.000000000000       0.731656587028      -0.000000000000
    *                 Magnitude:       0.731656587028


 #  #
 Irrep: 1
      1:  -19.062235789045758
      2:   -0.977230305210620
      3:   -0.498514582083159
      4:   -0.368598464672797
      5:   -0.290846406341294
      6:   -0.003200169054276
      7:    0.054907304518863
      8:    0.087937354022989
      9:    0.104711560563984
     10:    0.140349760024403
     11:    0.170370066280595
     12:    0.198143455809838
     13:    0.207276537596704
     14:    0.229357389292414
     15:    0.269656070179974
     16:    0.279415340172160
     17:    0.320418959104142
     18:    0.405845484847946
     19:    0.425197474835088
     20:    0.457943446393877
     21:    0.505466716340860
     22:    0.512382725468459
     23:    0.611917486573510
     24:    0.673010263708073
     25:    0.682674571655686
     26:    0.683707739631798
     27:    0.868319909350473
     28:    0.945413798348221
     29:    0.951848222909446
     30:    1.012200002741758
     31:    1.078297886626052
     32:    1.144174778447580
     33:    1.256716957958778
     34:    1.315534192331240
     35:    1.817333376775290
     36:    1.874597784601256
     37:    1.939999219550002
     38:    2.059508874940930
     39:    2.199182933910082
     40:    2.536738752407925
     41:    2.713356987544076
     42:    2.734097364643231
     43:    2.985822624287700
     44:    3.120616140803735
     45:    3.199702292634491
     46:    3.279340234209933
     47:    3.326954502050761
     48:    3.339406417634402
     49:    3.364722687422852
     50:    3.608532340527036
     51:    3.808315879280939
     52:    3.862452677152969
     53:    3.946860811391511
     54:    3.991448730252719
     55:    4.082928805905693
     56:    4.121395970710326
     57:    4.192657348481363
     58:    4.628202267819068
     59:    4.629660746616942
     60:    4.902775481508719
     61:    5.092947298712675
     62:    5.578909374459287
     63:    6.078355815760921
     64:    6.352138851938259
     65:    6.410922208374032
     66:    6.541606276358060
     67:    6.588155263096109
     68:    6.682404623358822
     69:    6.801213517216031
     70:    6.916587980982989
     71:    7.385370985548295
     72:    7.489045375729347
     73:    7.749150035225889
     74:   43.812339013358482


 #  #
 Irrep: 1
      1:  -19.062235789045758
      2:   -0.977230305210641
      3:   -0.498514582083158
      4:   -0.368598464672793
      5:   -0.290846406341292
      6:   -0.003200169054265
      7:    0.054907304518862
      8:    0.087937354022990
      9:    0.104711560563984
     10:    0.140349760024399
     11:    0.170370066280565
     12:    0.198143455809839
     13:    0.207276537596674
     14:    0.229357389292416
     15:    0.269656070179960
     16:    0.279415340172150
     17:    0.320418959104151
     18:    0.405845484847949
     19:    0.425197474835050
     20:    0.457943446393878
     21:    0.505466716340839
     22:    0.512382725468460
     23:    0.611917486573486
     24:    0.673010263708080
     25:    0.682674571655689
     26:    0.683707739631751
     27:    0.868319909350466
     28:    0.945413798348222
     29:    0.951848222909397
     30:    1.012200002741761
     31:    1.078297886626046
     32:    1.144174778447574
     33:    1.256716957958768
     34:    1.315534192331085
     35:    1.817333376775292
     36:    1.874597784601257
     37:    1.939999219550001
     38:    2.059508874940811
     39:    2.199182933909986
     40:    2.536738752407800
     41:    2.713356987544007
     42:    2.734097364643235
     43:    2.985822624287668
     44:    3.120616140803745
     45:    3.199702292634489
     46:    3.279340234209935
     47:    3.326954502050793
     48:    3.339406417634400
     49:    3.364722687422858
     50:    3.608532340527031
     51:    3.808315879280946
     52:    3.862452677152970
     53:    3.946860811391515
     54:    3.991448730252715
     55:    4.082928805905699
     56:    4.121395970710328
     57:    4.192657348481362
     58:    4.628202267819074
     59:    4.629660746616931
     60:    4.902775481508635
     61:    5.092947298712518
     62:    5.578909374459283
     63:    6.078355815760911
     64:    6.352138851938254
     65:    6.410922208374030
     66:    6.541606276358054
     67:    6.588155263096104
     68:    6.682404623358811
     69:    6.801213517216018
     70:    6.916587980982992
     71:    7.385370985548295
     72:    7.489045375729295
     73:    7.749150035225834
     74:   43.812339013358518

    QED-DFT total energy (y-pol)..........................................................PASSED

Scratch directory: /Users/deprince/psi4_scratch/

Scratch directory: /Users/deprince/psi4_scratch/
   => Libint2 <=

    Primary   basis highest AM E, G, H:  5, 4, 3
    Auxiliary basis highest AM E, G, H:  6, 5, 4
    Onebody   basis highest AM E, G, H:  6, 5, 4
    Solid Harmonics ordering:            Gaussian

*** tstart() called on wc-dhcp22d225.employee-secure.wireless.fsu.edu
*** at Thu Jun 18 16:46:26 2026

   => Loading Basis Set <=

    Name: DEF2-TZVPPD
    Role: ORBITAL
    Keyword: BASIS
    atoms 1   entry O          line   218 file /Users/deprince/software/psi4/v1.10/psi4/install/share/psi4/basis/def2-tzvppd.gbs 
    atoms 2-3 entry H          line    14 file /Users/deprince/software/psi4/v1.10/psi4/install/share/psi4/basis/def2-tzvppd.gbs 


         ---------------------------------------------------------
                                   SCF
               by Justin Turney, Rob Parrish, Andy Simmonett
                          and Daniel G. A. Smith
                              UKS Reference
                        1 Threads,    500 MiB Core
         ---------------------------------------------------------

  ==> Geometry <==

    Molecular point group: c1
    Full point group: C2v

    Geometry (in Angstrom), charge = 0, multiplicity = 1:

       Center              X                  Y                   Z               Mass       
    ------------   -----------------  -----------------  -----------------  -----------------
         O           -0.068516219320     0.000000000000     0.000000000000    15.994914619570
         H            0.543701060715     0.000000000000    -0.790689573744     1.007825032230
         H            0.543701060715     0.000000000000     0.790689573744     1.007825032230

  Running in c1 symmetry.

  Rotational constants: A =     25.12555  B =     13.37733  C =      8.72955 [cm^-1]
  Rotational constants: A = 753245.07149  B = 401042.16706  C = 261705.25473 [MHz]
  Nuclear repulsion =    8.801465564563404

  Charge       = 0
  Multiplicity = 1
  Electrons    = 10
  Nalpha       = 5
  Nbeta        = 5

  ==> Algorithm <==

  SCF Algorithm Type is DF.
  DIIS enabled.
  MOM disabled.
  Fractional occupation disabled.
  Guess Type is SAD.
  Energy threshold   = 1.00e-10
  Density threshold  = 1.00e-10
  Integral threshold = 1.00e-12

  ==> Primary Basis <==

  Basis Set: DEF2-TZVPPD
    Blend: DEF2-TZVPPD
    Number of shells: 28
    Number of basis functions: 74
    Number of Cartesian functions: 82
    Spherical Harmonics?: true
    Max angular momentum: 3

  ==> DFT Potential <==

   => LibXC <=

    Version 7.0.0
    S. Lehtola, C. Steigemann, M. J.T. Oliveira, and M. A.L. Marques.,  SoftwareX 7, 1–5 (2018) (10.1016/j.softx.2017.11.002)

   => Composite Functional: TPSSH <= 

    TPSSh Hyb-GGA Exchange-Correlation Functional

    V. N. Staroverov, G. E. Scuseria, J. Tao, and J. P. Perdew.,  J. Chem. Phys. 119, 12129 (2003) (10.1063/1.1626543)

    Deriv               =              1
    GGA                 =           TRUE
    Meta                =           TRUE

    Exchange Hybrid     =           TRUE
    MP2 Hybrid          =          FALSE

   => Exchange Functionals <=

    0.9000   Tao, Perdew, Staroverov & Scuseria

   => Exact (HF) Exchange <=

    0.1000               HF 

   => Correlation Functionals <=

    1.0000   Tao, Perdew, Staroverov & Scuseria

   => LibXC Density Thresholds  <==

    XC_HYB_MGGA_XC_TPSSH:  1.00E-15 

   => Molecular Quadrature <=

    Radial Scheme          =       TREUTLER
    Pruning Scheme         =           NONE
    Nuclear Scheme         =       TREUTLER

    Blocking Scheme        =         OCTREE
    BS radius alpha        =              1
    Pruning alpha          =              1
    Radial Points          =             75
    Spherical Points       =            302
    Total Points           =          66726
    Total Blocks           =            554
    Max Points             =            255
    Max Functions          =             74
    Weights Tolerance      =       1.00E-15

   => Loading Basis Set <=

    Name: (DEF2-TZVPPD AUX)
    Role: JKFIT
    Keyword: DF_BASIS_SCF
    atoms 1   entry O          line   318 file /Users/deprince/software/psi4/v1.10/psi4/install/share/psi4/basis/def2-universal-jkfit.gbs 
    atoms 2-3 entry H          line    18 file /Users/deprince/software/psi4/v1.10/psi4/install/share/psi4/basis/def2-universal-jkfit.gbs 

  ==> Integral Setup <==

  DFHelper Memory: AOs need 0.006 GiB; user supplied 0.019 GiB. 
  SCF_SUBTYPE=INCORE selected. In-core MEM_DF algorithm will be used.
  Using in-core AOs.

  ==> MemDFJK: Density-Fitted J/K Matrices <==

    J tasked:                   Yes
    K tasked:                   Yes
    wK tasked:                   No
    OpenMP threads:               1
    Memory [MiB]:                19
    Algorithm:                 Core
    Schwarz Cutoff:           1E-12
    Mask sparsity (%):       0.0000
    Fitting Condition:        1E-10

   => Auxiliary Basis Set <=

  Basis Set: (DEF2-TZVPPD AUX)
    Blend: DEF2-UNIVERSAL-JKFIT
    Number of shells: 37
    Number of basis functions: 113
    Number of Cartesian functions: 133
    Spherical Harmonics?: true
    Max angular momentum: 4

  Cached 100.0% of DFT collocation blocks in 0.347 [GiB].

  Minimum eigenvalue in the overlap matrix is 7.8812021163E-04.
  Reciprocal condition number of the overlap matrix is 1.2268631735E-04.
    Using symmetric orthogonalization.

  ==> Pre-Iterations <==

  SCF Guess: Superposition of Atomic Densities via on-the-fly atomic UHF (no occupation information).

   -------------------------
    Irrep   Nso     Nmo    
   -------------------------
     A         74      74 
   -------------------------
    Total      74      74
   -------------------------

  ==> Iterations <==

                           Total Energy        Delta E     RMS |[F,P]|

   @DF-UKS iter SAD:   -76.62867977502960   -7.66287e+01   0.00000e+00 
   @DF-UKS iter   1:   -76.38825306086660    2.40427e-01   3.95163e-03 DIIS/ADIIS
   @DF-UKS iter   2:   -76.40438987562433   -1.61368e-02   5.40300e-03 DIIS/ADIIS
   @DF-UKS iter   3:   -76.45778855169401   -5.33987e-02   8.34404e-04 DIIS/ADIIS
   @DF-UKS iter   4:   -76.45891031601857   -1.12176e-03   3.34154e-04 DIIS/ADIIS
   @DF-UKS iter   5:   -76.45914029662974   -2.29981e-04   1.69280e-05 DIIS
   @DF-UKS iter   6:   -76.45914082749815   -5.30868e-07   7.30818e-07 DIIS
   @DF-UKS iter   7:   -76.45914082882257   -1.32442e-09   9.51320e-08 DIIS
   @DF-UKS iter   8:   -76.45914082884198   -1.94120e-11   6.75437e-09 DIIS
   @DF-UKS iter   9:   -76.45914082884202   -4.26326e-14   2.48879e-10 DIIS
   @DF-UKS iter  10:   -76.45914082884221   -1.84741e-13   1.58112e-11 DIIS
  Energy and wave function converged.


  ==> Post-Iterations <==

   Electrons on quadrature grid:
      Nalpha   =    5.0000000031 ; deviation = 3.108e-09
      Nbeta    =    5.0000000031 ; deviation = 3.108e-09
      Ntotal   =   10.0000000062 ; deviation = 6.217e-09 

   @Spin Contamination Metric:  -1.953992523E-14
   @S^2 Expected:                0.000000000E+00
   @S^2 Observed:               -1.953992523E-14
   @S   Expected:                0.000000000E+00
   @S   Observed:                0.000000000E+00

    Orbital Energies [Eh]
    ---------------------

    Alpha Occupied:                                                       

       1A    -19.064970     2A     -0.978362     3A     -0.500624  
       4A     -0.370833     5A     -0.293116  

    Alpha Virtual:                                                        

       6A     -0.012230     7A      0.046495     8A      0.080046  
       9A      0.081773    10A      0.131238    11A      0.158702  
      12A      0.192397    13A      0.194785    14A      0.220133  
      15A      0.257452    16A      0.267982    17A      0.311739  
      18A      0.395987    19A      0.414696    20A      0.451833  
      21A      0.494368    22A      0.507448    23A      0.605338  
      24A      0.666736    25A      0.675740    26A      0.678041  
      27A      0.863236    28A      0.942103    29A      0.945592  
      30A      1.008757    31A      1.071862    32A      1.138944  
      33A      1.251297    34A      1.309959    35A      1.814278  
      36A      1.872035    37A      1.936286    38A      2.055809  
      39A      2.195283    40A      2.532896    41A      2.709943  
      42A      2.731306    43A      2.982260    44A      3.117846  
      45A      3.197205    46A      3.276303    47A      3.323515  
      48A      3.336227    49A      3.362111    50A      3.605539  
      51A      3.805825    52A      3.859815    53A      3.943143  
      54A      3.988523    55A      4.080444    56A      4.118340  
      57A      4.189121    58A      4.625184    59A      4.626979  
      60A      4.899912    61A      5.089950    62A      5.576311  
      63A      6.075576    64A      6.349695    65A      6.408641  
      66A      6.539171    67A      6.585497    68A      6.679207  
      69A      6.798710    70A      6.914134    71A      7.382475  
      72A      7.486332    73A      7.746431    74A     43.809546  

    Beta Occupied:                                                        

       1A    -19.064970     2A     -0.978362     3A     -0.500624  
       4A     -0.370833     5A     -0.293116  

    Beta Virtual:                                                         

       6A     -0.012230     7A      0.046495     8A      0.080046  
       9A      0.081773    10A      0.131238    11A      0.158702  
      12A      0.192397    13A      0.194785    14A      0.220133  
      15A      0.257452    16A      0.267982    17A      0.311739  
      18A      0.395987    19A      0.414696    20A      0.451833  
      21A      0.494368    22A      0.507448    23A      0.605338  
      24A      0.666736    25A      0.675740    26A      0.678041  
      27A      0.863236    28A      0.942103    29A      0.945592  
      30A      1.008757    31A      1.071862    32A      1.138944  
      33A      1.251297    34A      1.309959    35A      1.814278  
      36A      1.872035    37A      1.936286    38A      2.055809  
      39A      2.195283    40A      2.532896    41A      2.709943  
      42A      2.731306    43A      2.982260    44A      3.117846  
      45A      3.197205    46A      3.276303    47A      3.323515  
      48A      3.336227    49A      3.362111    50A      3.605539  
      51A      3.805825    52A      3.859815    53A      3.943143  
      54A      3.988523    55A      4.080444    56A      4.118340  
      57A      4.189121    58A      4.625184    59A      4.626979  
      60A      4.899912    61A      5.089950    62A      5.576311  
      63A      6.075576    64A      6.349695    65A      6.408641  
      66A      6.539171    67A      6.585497    68A      6.679207  
      69A      6.798710    70A      6.914134    71A      7.382475  
      72A      7.486332    73A      7.746431    74A     43.809546  

    Final Occupation by Irrep:
              A 
    DOCC [     5 ]
    SOCC [     0 ]
    NA   [     5 ]
    NB   [     5 ]

  @DF-UKS Final Energy:   -76.45914082884221

   => Energetics <=

    Nuclear Repulsion Energy =              8.8014655645634043
    One-Electron Energy =                -122.3530360130330621
    Two-Electron Energy =                  45.4971098691676517
    DFT Exchange-Correlation Energy =      -8.4046802495401991
    Empirical Dispersion Energy =           0.0000000000000000
    VV10 Nonlocal Energy =                  0.0000000000000000
    Total Energy =                        -76.4591408288422087

  UHF NO Occupations:
  HONO-2 :    3  A 2.0000000
  HONO-1 :    4  A 2.0000000
  HONO-0 :    5  A 2.0000000
  LUNO+0 :    6  A 0.0000000
  LUNO+1 :    7  A 0.0000000
  LUNO+2 :    8  A 0.0000000
  LUNO+3 :    9  A 0.0000000


Computation Completed


Properties will be evaluated at   0.000000,   0.000000,   0.000000 [a0]

Properties computed using the SCF density matrix


 Multipole Moments:

 ------------------------------------------------------------------------------------
     Multipole            Electronic (a.u.)      Nuclear  (a.u.)        Total (a.u.)
 ------------------------------------------------------------------------------------

 L = 1.  Multiply by 2.5417464519 to convert [e a0] to [Debye]
 Dipole X            :         -0.2932123            1.0190771            0.7258648
 Dipole Y            :          0.0000000            0.0000000            0.0000000
 Dipole Z            :         -0.0000000            0.0000000           -0.0000000
 Magnitude           :                                                    0.7258648

 ------------------------------------------------------------------------------------

*** tstop() called on wc-dhcp22d225.employee-secure.wireless.fsu.edu at Thu Jun 18 16:46:28 2026
Module time:
	user time   =       2.11 seconds =       0.04 minutes
	system time =       0.03 seconds =       0.00 minutes
	total time  =          2 seconds =       0.03 minutes
Total time:
	user time   =      10.97 seconds =       0.18 minutes
	system time =       0.21 seconds =       0.00 minutes
	total time  =         11 seconds =       0.18 minutes
   => Loading Basis Set <=

    Name: (DEF2-TZVPPD AUX)
    Role: JKFIT
    Keyword: DF_BASIS_SCF
    atoms 1   entry O          line   318 file /Users/deprince/software/psi4/v1.10/psi4/install/share/psi4/basis/def2-universal-jkfit.gbs 
    atoms 2-3 entry H          line    18 file /Users/deprince/software/psi4/v1.10/psi4/install/share/psi4/basis/def2-universal-jkfit.gbs 

   => Loading Basis Set <=

    Name: (DEF2-TZVPPD AUX)
    Role: RIFIT
    Keyword: DF_BASIS_CC
    atoms 1   entry O          line   333 file /Users/deprince/software/psi4/v1.10/psi4/install/share/psi4/basis/def2-tzvppd-ri.gbs 
    atoms 2-3 entry H          line    22 file /Users/deprince/software/psi4/v1.10/psi4/install/share/psi4/basis/def2-tzvppd-ri.gbs 


Reading options from the HILBERT block
Calling plugin hilbert.so.


Plugins that use gradients: set Da, Db, and Lagrangian for gradient theory on the wavefunction. The old way of passing these will stop working as soon as 1.8.    Molecular point group: c1
    Full point group: C2v

    Geometry (in Angstrom), charge = 0, multiplicity = 1:

       Center              X                  Y                   Z               Mass       
    ------------   -----------------  -----------------  -----------------  -----------------
         O           -0.068516219320     0.000000000000     0.000000000000    15.994914619570
         H            0.543701060715     0.000000000000    -0.790689573744     1.007825032230
         H            0.543701060715     0.000000000000     0.790689573744     1.007825032230

  -AO BASIS SET INFORMATION:
    Name                   = DEF2-TZVPPD
    Blend                  = DEF2-TZVPPD
    Total number of shells = 28
    Number of primitives   = 41
    Number of AO           = 82
    Number of SO           = 74
    Maximum AM             = 3
    Spherical Harmonics    = TRUE

  -Contraction Scheme:
    Atom   Type   All Primitives // Shells:
   ------ ------ --------------------------
       1     O     12s 7p 3d 1f // 6s 4p 3d 1f 
       2     H     5s 3p 1d // 3s 3p 1d 
       3     H     5s 3p 1d // 3s 3p 1d 

  ==> AO Basis Functions <==

    [ DEF2-TZVPPD ]
    spherical
    ****
    O   1
    S   6 1.00
                     27032.38263100           0.00021726
                      4052.38713920           0.00168387
                       922.32722710           0.00873956
                       261.24070989           0.03523997
                        85.35464135           0.11153519
                        31.03503524           0.25588954
    S   2 1.00
                        12.26086073           0.39768731
                         4.99870760           0.24627849
    S   1 1.00
                         1.17031082           1.00000000
    S   1 1.00
                         0.46474741           1.00000000
    S   1 1.00
                         0.18504536           1.00000000
    S   1 1.00
                         0.07028803           1.00000000
    P   4 1.00
                        63.27495480           0.00606851
                        14.62704938           0.04191258
                         4.45012235           0.16153841
                         1.52757996           0.35706951
    P   1 1.00
                         0.52935118           1.00000000
    P   1 1.00
                         0.17478421           1.00000000
    P   1 1.00
                         0.05111275           1.00000000
    D   1 1.00
                         2.31400000           1.00000000
    D   1 1.00
                         0.64500000           1.00000000
    D   1 1.00
                         0.14696477           1.00000000
    F   1 1.00
                         1.42800000           1.00000000
    ****
    H   2
    S   3 1.00
                        34.06134100           0.00602520
                         5.12357460           0.04502109
                         1.16466260           0.20189726
    S   1 1.00
                         0.32723041           1.00000000
    S   1 1.00
                         0.10307241           1.00000000
    P   1 1.00
                         1.40700000           1.00000000
    P   1 1.00
                         0.38800000           1.00000000
    P   1 1.00
                         0.09577413           1.00000000
    D   1 1.00
                         1.05700000           1.00000000
    ****
    H   3
    S   3 1.00
                        34.06134100           0.00602520
                         5.12357460           0.04502109
                         1.16466260           0.20189726
    S   1 1.00
                         0.32723041           1.00000000
    S   1 1.00
                         0.10307241           1.00000000
    P   1 1.00
                         1.40700000           1.00000000
    P   1 1.00
                         0.38800000           1.00000000
    P   1 1.00
                         0.09577413           1.00000000
    D   1 1.00
                         1.05700000           1.00000000
    ****



        *******************************************************
        *                                                     *
        *                                                     *
        *    Polaritonic UKS                                  *
        *                                                     *
        *                                                     *
        *******************************************************
    Molecular point group: c1
    Full point group: C2v

    Geometry (in Angstrom), charge = 0, multiplicity = 1:

       Center              X                  Y                   Z               Mass       
    ------------   -----------------  -----------------  -----------------  -----------------
         O           -0.068516219320     0.000000000000     0.000000000000    15.994914619570
         H            0.543701060715     0.000000000000    -0.790689573744     1.007825032230
         H            0.543701060715     0.000000000000     0.790689573744     1.007825032230

  -AO BASIS SET INFORMATION:
    Name                   = DEF2-TZVPPD
    Blend                  = DEF2-TZVPPD
    Total number of shells = 28
    Number of primitives   = 41
    Number of AO           = 82
    Number of SO           = 74
    Maximum AM             = 3
    Spherical Harmonics    = TRUE

  -Contraction Scheme:
    Atom   Type   All Primitives // Shells:
   ------ ------ --------------------------
       1     O     12s 7p 3d 1f // 6s 4p 3d 1f 
       2     H     5s 3p 1d // 3s 3p 1d 
       3     H     5s 3p 1d // 3s 3p 1d 

  ==> AO Basis Functions <==

    [ DEF2-TZVPPD ]
    spherical
    ****
    O   1
    S   6 1.00
                     27032.38263100           0.00021726
                      4052.38713920           0.00168387
                       922.32722710           0.00873956
                       261.24070989           0.03523997
                        85.35464135           0.11153519
                        31.03503524           0.25588954
    S   2 1.00
                        12.26086073           0.39768731
                         4.99870760           0.24627849
    S   1 1.00
                         1.17031082           1.00000000
    S   1 1.00
                         0.46474741           1.00000000
    S   1 1.00
                         0.18504536           1.00000000
    S   1 1.00
                         0.07028803           1.00000000
    P   4 1.00
                        63.27495480           0.00606851
                        14.62704938           0.04191258
                         4.45012235           0.16153841
                         1.52757996           0.35706951
    P   1 1.00
                         0.52935118           1.00000000
    P   1 1.00
                         0.17478421           1.00000000
    P   1 1.00
                         0.05111275           1.00000000
    D   1 1.00
                         2.31400000           1.00000000
    D   1 1.00
                         0.64500000           1.00000000
    D   1 1.00
                         0.14696477           1.00000000
    F   1 1.00
                         1.42800000           1.00000000
    ****
    H   2
    S   3 1.00
                        34.06134100           0.00602520
                         5.12357460           0.04502109
                         1.16466260           0.20189726
    S   1 1.00
                         0.32723041           1.00000000
    S   1 1.00
                         0.10307241           1.00000000
    P   1 1.00
                         1.40700000           1.00000000
    P   1 1.00
                         0.38800000           1.00000000
    P   1 1.00
                         0.09577413           1.00000000
    D   1 1.00
                         1.05700000           1.00000000
    ****
    H   3
    S   3 1.00
                        34.06134100           0.00602520
                         5.12357460           0.04502109
                         1.16466260           0.20189726
    S   1 1.00
                         0.32723041           1.00000000
    S   1 1.00
                         0.10307241           1.00000000
    P   1 1.00
                         1.40700000           1.00000000
    P   1 1.00
                         0.38800000           1.00000000
    P   1 1.00
                         0.09577413           1.00000000
    D   1 1.00
                         1.05700000           1.00000000
    ****

  ==> DFT Potential <==

   => LibXC <=

    Version 7.0.0
    S. Lehtola, C. Steigemann, M. J.T. Oliveira, and M. A.L. Marques.,  SoftwareX 7, 1–5 (2018) (10.1016/j.softx.2017.11.002)

   => Composite Functional: TPSSH <= 

    TPSSh Hyb-GGA Exchange-Correlation Functional

    V. N. Staroverov, G. E. Scuseria, J. Tao, and J. P. Perdew.,  J. Chem. Phys. 119, 12129 (2003) (10.1063/1.1626543)

    Deriv               =              1
    GGA                 =           TRUE
    Meta                =           TRUE

    Exchange Hybrid     =           TRUE
    MP2 Hybrid          =          FALSE

   => Exchange Functionals <=

    0.9000   Tao, Perdew, Staroverov & Scuseria

   => Exact (HF) Exchange <=

    0.1000               HF 

   => Correlation Functionals <=

    1.0000   Tao, Perdew, Staroverov & Scuseria

   => LibXC Density Thresholds  <==

    XC_HYB_MGGA_XC_TPSSH:  1.00E-15 

   => Molecular Quadrature <=

    Radial Scheme          =       TREUTLER
    Pruning Scheme         =           NONE
    Nuclear Scheme         =       TREUTLER

    Blocking Scheme        =         OCTREE
    BS radius alpha        =              1
    Pruning alpha          =              1
    Radial Points          =             75
    Spherical Points       =            302
    Total Points           =          66726
    Total Blocks           =            554
    Max Points             =            255
    Max Functions          =             74
    Weights Tolerance      =       1.00E-15


    No. basis functions:               74
    No. auxiliary basis functions:    113
    No. alpha electrons:                5
    No. beta electrons:                 5
    e_convergence:              1.000e-10
    d_convergence:              1.000e-10
    maxiter:                          500



    Guess energy:      -73.582850070257

    ==>  Begin SCF Iterations <==

     Iter               energy                   dE          RMS |[F,P]| 
        0     -76.453426515174      -2.870576444917       0.000059461228
        1     -76.453443041579      -0.000016526404       0.000071034785
        2     -76.453421584422       0.000021457156       0.000129543627
        3     -76.453353225696       0.000068358726       0.000231459711
        4     -76.453452993796      -0.000099768100       0.000000402157
        5     -76.453452994142      -0.000000000346       0.000000024232
        6     -76.453452994143      -0.000000000001       0.000000006859
        7     -76.453452994143      -0.000000000000       0.000000000368
        8     -76.453452994143       0.000000000000       0.000000000021

    SCF iterations converged!


    ==> dipole self-energy: 1/2 lambda^2 ( <mu_e^2> - <mu_e>^2 ) <==

    one-electron part;        0.008573777084
    two-electron part:       -0.002911692830
    total:                    0.005662084254


    ==> dipole integrals <== 

    <mu_x> =      -0.287420493384
    <mu_y> =       0.000000000000
    <mu_z> =      -0.000000000000


    ==> dipole variance: ( <mu_e^2> - <mu_e>^2 ) <== 

    one electron (xx):       6.859021667269
    one electron (xy):       0.000000000000
    one electron (xz):       0.000000000000
    one electron (yy):       5.822321526988
    one electron (yz):       0.000000000000
    one electron (zz):       7.705328016496

    two electron (xx):      -2.329354264036
    two electron (xy):      -0.000000000000
    two electron (xz):      -0.000000000000
    two electron (yy):      -1.787601319632
    two electron (yz):      -0.000000000000
    two electron (zz):      -2.834977654412

    total (xx):              4.529667403233
    total (xy):              0.000000000000
    total (xz):              0.000000000000
    total (yy):              4.034720207356
    total (yz):              0.000000000000
    total (zz):              4.870350362084

    * Polaritonic UKS total energy:     -76.453452994143

    * Polaritonic Dipole Moment:      -0.287420493384       0.000000000000      -0.000000000000
    *     Nuclear Dipole Moment:       1.019077080412       0.000000000000       0.000000000000
    *       Total Dipole Moment:       0.731656587027       0.000000000000      -0.000000000000
    *                 Magnitude:       0.731656587027


 #  #
 Irrep: 1
      1:  -19.062235789045548
      2:   -0.977230305210459
      3:   -0.498514582082962
      4:   -0.368598464672513
      5:   -0.290846406341016
      6:   -0.003200169054896
      7:    0.054907304518557
      8:    0.087937354022770
      9:    0.104711560563937
     10:    0.140349760024306
     11:    0.170370066277872
     12:    0.198143455809693
     13:    0.207276537594725
     14:    0.229357389291989
     15:    0.269656070182040
     16:    0.279415340171718
     17:    0.320418959107739
     18:    0.405845484847262
     19:    0.425197474833076
     20:    0.457943446393457
     21:    0.505466716339681
     22:    0.512382725467840
     23:    0.611917486573498
     24:    0.673010263708260
     25:    0.682674571655006
     26:    0.683707739635735
     27:    0.868319909349915
     28:    0.945413798347844
     29:    0.951848222922076
     30:    1.012200002741857
     31:    1.078297886628506
     32:    1.144174778450572
     33:    1.256716957957714
     34:    1.315534192359902
     35:    1.817333376775386
     36:    1.874597784601326
     37:    1.939999219550918
     38:    2.059508874967108
     39:    2.199182933913661
     40:    2.536738752434370
     41:    2.713356987543908
     42:    2.734097364643929
     43:    2.985822624297684
     44:    3.120616140803675
     45:    3.199702292637741
     46:    3.279340234208049
     47:    3.326954502063360
     48:    3.339406417634180
     49:    3.364722687422772
     50:    3.608532340527488
     51:    3.808315879280693
     52:    3.862452677152720
     53:    3.946860811391640
     54:    3.991448730252600
     55:    4.082928805905858
     56:    4.121395970711328
     57:    4.192657348481885
     58:    4.628202267819407
     59:    4.629660746617453
     60:    4.902775481506773
     61:    5.092947298746555
     62:    5.578909374459543
     63:    6.078355815762502
     64:    6.352138851938689
     65:    6.410922208374564
     66:    6.541606276357323
     67:    6.588155263096668
     68:    6.682404623362630
     69:    6.801213517216272
     70:    6.916587980983897
     71:    7.385370985548600
     72:    7.489045375726424
     73:    7.749150035246403
     74:   43.812339013358397


 #  #
 Irrep: 1
      1:  -19.062235789045566
      2:   -0.977230305210454
      3:   -0.498514582082958
      4:   -0.368598464672508
      5:   -0.290846406341032
      6:   -0.003200169054899
      7:    0.054907304518562
      8:    0.087937354022771
      9:    0.104711560563937
     10:    0.140349760024307
     11:    0.170370066277884
     12:    0.198143455809696
     13:    0.207276537594720
     14:    0.229357389291983
     15:    0.269656070182022
     16:    0.279415340171748
     17:    0.320418959107827
     18:    0.405845484847322
     19:    0.425197474833078
     20:    0.457943446393457
     21:    0.505466716339679
     22:    0.512382725467835
     23:    0.611917486573475
     24:    0.673010263708290
     25:    0.682674571655006
     26:    0.683707739635716
     27:    0.868319909349979
     28:    0.945413798347854
     29:    0.951848222921941
     30:    1.012200002741857
     31:    1.078297886628497
     32:    1.144174778450598
     33:    1.256716957957717
     34:    1.315534192359871
     35:    1.817333376775387
     36:    1.874597784601321
     37:    1.939999219550911
     38:    2.059508874967061
     39:    2.199182933913614
     40:    2.536738752434429
     41:    2.713356987543878
     42:    2.734097364643922
     43:    2.985822624297580
     44:    3.120616140803677
     45:    3.199702292637754
     46:    3.279340234208060
     47:    3.326954502063431
     48:    3.339406417634182
     49:    3.364722687422769
     50:    3.608532340527489
     51:    3.808315879280687
     52:    3.862452677152716
     53:    3.946860811391644
     54:    3.991448730252595
     55:    4.082928805905854
     56:    4.121395970711299
     57:    4.192657348481894
     58:    4.628202267819405
     59:    4.629660746617451
     60:    4.902775481506758
     61:    5.092947298746625
     62:    5.578909374459540
     63:    6.078355815762500
     64:    6.352138851938691
     65:    6.410922208374568
     66:    6.541606276357331
     67:    6.588155263096671
     68:    6.682404623362632
     69:    6.801213517216262
     70:    6.916587980983897
     71:    7.385370985548592
     72:    7.489045375726429
     73:    7.749150035246495
     74:   43.812339013358425

    QED-DFT total energy (x-pol)..........................................................PASSED

    Psi4 stopped on: Thursday, 18 June 2026 04:46PM
    Psi4 wall time for execution: 0:00:13.40

*** Psi4 exiting successfully. Buy a developer a beer!
