
    -----------------------------------------------------------------------
          Psi4: An Open-Source Ab Initio Electronic Structure Package
                               Psi4 1.9.1 

                         Git: Rev {HEAD} f53cdd7 dirty


    D. G. A. Smith, L. A. Burns, A. C. Simmonett, R. M. Parrish,
    M. C. Schieber, R. Galvelis, P. Kraus, H. Kruse, R. Di Remigio,
    A. Alenaizan, A. M. James, S. Lehtola, J. P. Misiewicz, M. Scheurer,
    R. A. Shaw, J. B. Schriber, Y. Xie, Z. L. Glick, D. A. Sirianni,
    J. S. O'Brien, J. M. Waldrop, A. Kumar, E. G. Hohenstein,
    B. P. Pritchard, B. R. Brooks, H. F. Schaefer III, A. Yu. Sokolov,
    K. Patkowski, A. E. DePrince III, U. Bozkaya, R. A. King,
    F. A. Evangelista, J. M. Turney, T. D. Crawford, C. D. Sherrill,
    J. Chem. Phys. 152(18) 184108 (2020). https://doi.org/10.1063/5.0006002

                            Additional Code Authors
    E. T. Seidl, C. L. Janssen, E. F. Valeev, M. L. Leininger,
    J. F. Gonthier, R. M. Richard, H. R. McAlexander, M. Saitow, X. Wang,
    P. Verma, M. H. Lechner, A. Jiang, S. Behnle, A. G. Heide,
    M. F. Herbst, and D. L. Poole

             Previous Authors, Complete List of Code Contributors,
                       and Citations for Specific Modules
    https://github.com/psi4/psi4/blob/master/codemeta.json
    https://github.com/psi4/psi4/graphs/contributors
    http://psicode.org/psi4manual/master/introduction.html#citing-psifour

    -----------------------------------------------------------------------


    Psi4 started on: Monday, 01 July 2024 01:31PM

    Process ID: 65448
    Host:       wc-dhcp35d189.employee-secure.wireless.fsu.edu
    PSIDATADIR: /Users/deprince/software/psi4/v1.9.1/psi4/install/share/psi4
    Memory:     500.0 MiB
    Threads:    1
    
  ==> Input File <==

--------------------------------------------------------------------------
# PYTHONPATH must include directory above plugin directory.
#     Define either externally or here, then import plugin.
sys.path.insert(0, '../../..')
import hilbert

molecule mol1 {
         O            0.000000000000     0.000000000000    -0.068516219320    
         H            0.000000000000    -0.790689573744     0.543701060715    
         H            0.000000000000     0.790689573744     0.543701060715    
no_reorient
nocom
symmetry c1
}
molecule mol2 {
         O             0.000000000000    -0.068516219320    0.000000000000    
         H            -0.790689573744     0.543701060715    0.000000000000    
         H             0.790689573744     0.543701060715    0.000000000000    
no_reorient
nocom
symmetry c1
}
molecule mol3 {
         O         -0.068516219320      0.000000000000     0.000000000000     
         H          0.543701060715      0.000000000000    -0.790689573744     
         H          0.543701060715      0.000000000000     0.790689573744     
no_reorient
nocom
symmetry c1
}

set {
  basis def2-tzvppd
  scf_type df 
  e_convergence 1e-10
  d_convergence 1e-10 
} 

# frequency: 2.0 eV
w = 0.07349864501573

# lambda: 0.05
# coupling g = 0.05 / sqrt(2*w)
g = 0.05 / np.sqrt(2.0 * w)

set {
  maxiter 500
  n_photon_states          2
  cavity_frequency         [0.0, 0.0, $w]
  cavity_coupling_strength [0.0, 0.0, $g]
  qed_dft_functional tpssh
}

ref_dft = -76.453452994149

set reference uks
activate(mol1)
set basis def2-tzvppd
energy('qed-dft')

compare_values(ref_dft, variable("SCF TOTAL ENERGY"), 8, "QED-DFT total energy (xyz)") # TEST

set reference uks
activate(mol2)
set basis def2-tzvppd
set hilbert {
    rotate_polarization_axis "ZXY"
}
energy('qed-dft')

compare_values(ref_dft, variable("SCF TOTAL ENERGY"), 8, "QED-DFT total energy (zxy)") # TEST

set reference uks
activate(mol3)
set basis def2-tzvppd
set hilbert {
    rotate_polarization_axis "YZX"
}
energy('qed-dft')

compare_values(ref_dft, variable("SCF TOTAL ENERGY"), 8, "QED-DFT total energy (yzx)") # TEST
--------------------------------------------------------------------------

Scratch directory: /tmp/

Scratch directory: /tmp/
   => Libint2 <=

    Primary   basis highest AM E, G, H:  5, 4, 3
    Auxiliary basis highest AM E, G, H:  6, 5, 4
    Onebody   basis highest AM E, G, H:  6, 5, 4
    Solid Harmonics ordering:            Gaussian

*** tstart() called on wc-dhcp35d189.employee-secure.wireless.fsu.edu
*** at Mon Jul  1 13:31:08 2024

   => Loading Basis Set <=

    Name: DEF2-TZVPPD
    Role: ORBITAL
    Keyword: BASIS
    atoms 1   entry O          line   218 file /Users/deprince/software/psi4/v1.9.1/psi4/install/share/psi4/basis/def2-tzvppd.gbs 
    atoms 2-3 entry H          line    14 file /Users/deprince/software/psi4/v1.9.1/psi4/install/share/psi4/basis/def2-tzvppd.gbs 


         ---------------------------------------------------------
                                   SCF
               by Justin Turney, Rob Parrish, Andy Simmonett
                          and Daniel G. A. Smith
                              UKS Reference
                        1 Threads,    500 MiB Core
         ---------------------------------------------------------

  ==> Geometry <==

    Molecular point group: c1
    Full point group: C2v

    Geometry (in Angstrom), charge = 0, multiplicity = 1:

       Center              X                  Y                   Z               Mass       
    ------------   -----------------  -----------------  -----------------  -----------------
         O            0.000000000000     0.000000000000    -0.068516219320    15.994914619570
         H            0.000000000000    -0.790689573744     0.543701060715     1.007825032230
         H            0.000000000000     0.790689573744     0.543701060715     1.007825032230

  Running in c1 symmetry.

  Rotational constants: A =     25.12555  B =     13.37733  C =      8.72955 [cm^-1]
  Rotational constants: A = 753245.07149  B = 401042.16706  C = 261705.25473 [MHz]
  Nuclear repulsion =    8.801465564563406

  Charge       = 0
  Multiplicity = 1
  Electrons    = 10
  Nalpha       = 5
  Nbeta        = 5

  ==> Algorithm <==

  SCF Algorithm Type is DF.
  DIIS enabled.
  MOM disabled.
  Fractional occupation disabled.
  Guess Type is SAD.
  Energy threshold   = 1.00e-10
  Density threshold  = 1.00e-10
  Integral threshold = 1.00e-12

  ==> Primary Basis <==

  Basis Set: DEF2-TZVPPD
    Blend: DEF2-TZVPPD
    Number of shells: 28
    Number of basis functions: 74
    Number of Cartesian functions: 82
    Spherical Harmonics?: true
    Max angular momentum: 3

  ==> DFT Potential <==

   => LibXC <=

    Version 6.2.2
    S. Lehtola, C. Steigemann, M. J.T. Oliveira, and M. A.L. Marques.,  SoftwareX 7, 1–5 (2018) (10.1016/j.softx.2017.11.002)

   => Composite Functional: TPSSH <= 

    TPSSh Hyb-GGA Exchange-Correlation Functional

    V. N. Staroverov, G. E. Scuseria, J. Tao, and J. P. Perdew.,  J. Chem. Phys. 119, 12129 (2003) (10.1063/1.1626543)

    Deriv               =              1
    GGA                 =           TRUE
    Meta                =           TRUE

    Exchange Hybrid     =           TRUE
    MP2 Hybrid          =          FALSE

   => Exchange Functionals <=

    0.9000   Tao, Perdew, Staroverov & Scuseria

   => Exact (HF) Exchange <=

    0.1000               HF 

   => Correlation Functionals <=

    1.0000   Tao, Perdew, Staroverov & Scuseria

   => LibXC Density Thresholds  <==

    XC_HYB_MGGA_XC_TPSSH:  1.00E-15 

   => Molecular Quadrature <=

    Radial Scheme          =       TREUTLER
    Pruning Scheme         =           NONE
    Nuclear Scheme         =       TREUTLER

    Blocking Scheme        =         OCTREE
    BS radius alpha        =              1
    Pruning alpha          =              1
    Radial Points          =             75
    Spherical Points       =            302
    Total Points           =          66724
    Total Blocks           =            557
    Max Points             =            255
    Max Functions          =             74
    Weights Tolerance      =       1.00E-15

   => Loading Basis Set <=

    Name: (DEF2-TZVPPD AUX)
    Role: JKFIT
    Keyword: DF_BASIS_SCF
    atoms 1   entry O          line   318 file /Users/deprince/software/psi4/v1.9.1/psi4/install/share/psi4/basis/def2-universal-jkfit.gbs 
    atoms 2-3 entry H          line    18 file /Users/deprince/software/psi4/v1.9.1/psi4/install/share/psi4/basis/def2-universal-jkfit.gbs 

  ==> Integral Setup <==

  ==> DiskDFJK: Density-Fitted J/K Matrices <==

    J tasked:                  Yes
    K tasked:                  Yes
    wK tasked:                  No
    OpenMP threads:              1
    Integrals threads:           1
    Memory [MiB]:               19
    Algorithm:                Core
    Integral Cache:           SAVE
    Schwarz Cutoff:          1E-12
    Fitting Condition:       1E-10

   => Auxiliary Basis Set <=

  Basis Set: (DEF2-TZVPPD AUX)
    Blend: DEF2-UNIVERSAL-JKFIT
    Number of shells: 37
    Number of basis functions: 113
    Number of Cartesian functions: 133
    Spherical Harmonics?: true
    Max angular momentum: 4

  Cached 100.0% of DFT collocation blocks in 0.347 [GiB].

  Minimum eigenvalue in the overlap matrix is 7.8812021163E-04.
  Reciprocal condition number of the overlap matrix is 1.2268631735E-04.
    Using symmetric orthogonalization.

  ==> Pre-Iterations <==

  SCF Guess: Superposition of Atomic Densities via on-the-fly atomic UHF (no occupation information).

   -------------------------
    Irrep   Nso     Nmo    
   -------------------------
     A         74      74 
   -------------------------
    Total      74      74
   -------------------------

  ==> Iterations <==

                           Total Energy        Delta E     RMS |[F,P]|

   @DF-UKS iter SAD:   -76.08031840199953   -7.60803e+01   0.00000e+00 
   @DF-UKS iter   1:   -76.27801403090662   -1.97696e-01   9.73962e-03 ADIIS/DIIS
   @DF-UKS iter   2:   -75.65428927880754    6.23725e-01   1.87770e-02 ADIIS/DIIS
   @DF-UKS iter   3:   -76.45889713039095   -8.04608e-01   3.92377e-04 ADIIS/DIIS
   @DF-UKS iter   4:   -76.45909512278082   -1.97992e-04   1.51761e-04 ADIIS/DIIS
   @DF-UKS iter   5:   -76.45914010067978   -4.49779e-05   1.95970e-05 DIIS
   @DF-UKS iter   6:   -76.45914082190890   -7.21229e-07   2.01961e-06 DIIS
   @DF-UKS iter   7:   -76.45914082882956   -6.92066e-09   8.34876e-08 DIIS
   @DF-UKS iter   8:   -76.45914082884842   -1.88578e-11   1.04136e-08 DIIS
   @DF-UKS iter   9:   -76.45914082884856   -1.42109e-13   3.57192e-10 DIIS
   @DF-UKS iter  10:   -76.45914082884858   -1.42109e-14   1.90075e-11 DIIS
  Energy and wave function converged.


  ==> Post-Iterations <==

   Electrons on quadrature grid:
      Nalpha   =    5.0000000031 ; deviation = 3.108e-09
      Nbeta    =    5.0000000031 ; deviation = 3.108e-09
      Ntotal   =   10.0000000062 ; deviation = 6.217e-09 

   @Spin Contamination Metric:  -8.881784197E-15
   @S^2 Expected:                0.000000000E+00
   @S^2 Observed:               -8.881784197E-15
   @S   Expected:                0.000000000E+00
   @S   Observed:                0.000000000E+00

    Orbital Energies [Eh]
    ---------------------

    Alpha Occupied:                                                       

       1A    -19.064970     2A     -0.978362     3A     -0.500624  
       4A     -0.370833     5A     -0.293116  

    Alpha Virtual:                                                        

       6A     -0.012230     7A      0.046495     8A      0.080046  
       9A      0.081773    10A      0.131238    11A      0.158702  
      12A      0.192397    13A      0.194785    14A      0.220133  
      15A      0.257452    16A      0.267982    17A      0.311739  
      18A      0.395987    19A      0.414696    20A      0.451833  
      21A      0.494368    22A      0.507448    23A      0.605338  
      24A      0.666736    25A      0.675740    26A      0.678041  
      27A      0.863236    28A      0.942103    29A      0.945592  
      30A      1.008757    31A      1.071862    32A      1.138944  
      33A      1.251297    34A      1.309959    35A      1.814278  
      36A      1.872035    37A      1.936286    38A      2.055809  
      39A      2.195283    40A      2.532896    41A      2.709943  
      42A      2.731306    43A      2.982260    44A      3.117846  
      45A      3.197205    46A      3.276303    47A      3.323515  
      48A      3.336227    49A      3.362111    50A      3.605539  
      51A      3.805825    52A      3.859815    53A      3.943143  
      54A      3.988523    55A      4.080444    56A      4.118340  
      57A      4.189121    58A      4.625184    59A      4.626979  
      60A      4.899912    61A      5.089950    62A      5.576311  
      63A      6.075576    64A      6.349695    65A      6.408641  
      66A      6.539171    67A      6.585497    68A      6.679207  
      69A      6.798710    70A      6.914134    71A      7.382475  
      72A      7.486332    73A      7.746431    74A     43.809546  

    Beta Occupied:                                                        

       1A    -19.064970     2A     -0.978362     3A     -0.500624  
       4A     -0.370833     5A     -0.293116  

    Beta Virtual:                                                         

       6A     -0.012230     7A      0.046495     8A      0.080046  
       9A      0.081773    10A      0.131238    11A      0.158702  
      12A      0.192397    13A      0.194785    14A      0.220133  
      15A      0.257452    16A      0.267982    17A      0.311739  
      18A      0.395987    19A      0.414696    20A      0.451833  
      21A      0.494368    22A      0.507448    23A      0.605338  
      24A      0.666736    25A      0.675740    26A      0.678041  
      27A      0.863236    28A      0.942103    29A      0.945592  
      30A      1.008757    31A      1.071862    32A      1.138944  
      33A      1.251297    34A      1.309959    35A      1.814278  
      36A      1.872035    37A      1.936286    38A      2.055809  
      39A      2.195283    40A      2.532896    41A      2.709943  
      42A      2.731306    43A      2.982260    44A      3.117846  
      45A      3.197205    46A      3.276303    47A      3.323515  
      48A      3.336227    49A      3.362111    50A      3.605539  
      51A      3.805825    52A      3.859815    53A      3.943143  
      54A      3.988523    55A      4.080444    56A      4.118340  
      57A      4.189121    58A      4.625184    59A      4.626979  
      60A      4.899912    61A      5.089950    62A      5.576311  
      63A      6.075576    64A      6.349695    65A      6.408641  
      66A      6.539171    67A      6.585497    68A      6.679207  
      69A      6.798710    70A      6.914134    71A      7.382475  
      72A      7.486332    73A      7.746431    74A     43.809546  

    Final Occupation by Irrep:
              A 
    DOCC [     5 ]
    SOCC [     0 ]
    NA   [     5 ]
    NB   [     5 ]

  @DF-UKS Final Energy:   -76.45914082884858

   => Energetics <=

    Nuclear Repulsion Energy =              8.8014655645634061
    One-Electron Energy =                -122.3530360183997630
    Two-Electron Energy =                  45.4971098751182765
    DFT Exchange-Correlation Energy =      -8.4046802501304949
    Empirical Dispersion Energy =           0.0000000000000000
    VV10 Nonlocal Energy =                  0.0000000000000000
    Total Energy =                        -76.4591408288485752

  UHF NO Occupations:
  HONO-2 :    3  A 2.0000000
  HONO-1 :    4  A 2.0000000
  HONO-0 :    5  A 2.0000000
  LUNO+0 :    6  A 0.0000000
  LUNO+1 :    7  A 0.0000000
  LUNO+2 :    8  A 0.0000000
  LUNO+3 :    9  A 0.0000000


Computation Completed


Properties will be evaluated at   0.000000,   0.000000,   0.000000 [a0]

Properties computed using the SCF density matrix


 Multipole Moments:

 ------------------------------------------------------------------------------------
     Multipole            Electronic (a.u.)      Nuclear  (a.u.)        Total (a.u.)
 ------------------------------------------------------------------------------------

 L = 1.  Multiply by 2.5417464519 to convert [e a0] to [Debye]
 Dipole X            :         -0.0000000            0.0000000           -0.0000000
 Dipole Y            :         -0.0000000            0.0000000           -0.0000000
 Dipole Z            :         -0.2932123            1.0190771            0.7258648
 Magnitude           :                                                    0.7258648

 ------------------------------------------------------------------------------------

*** tstop() called on wc-dhcp35d189.employee-secure.wireless.fsu.edu at Mon Jul  1 13:31:11 2024
Module time:
	user time   =       2.56 seconds =       0.04 minutes
	system time =       0.22 seconds =       0.00 minutes
	total time  =          3 seconds =       0.05 minutes
Total time:
	user time   =       2.56 seconds =       0.04 minutes
	system time =       0.22 seconds =       0.00 minutes
	total time  =          3 seconds =       0.05 minutes
   => Loading Basis Set <=

    Name: (DEF2-TZVPPD AUX)
    Role: JKFIT
    Keyword: DF_BASIS_SCF
    atoms 1   entry O          line   318 file /Users/deprince/software/psi4/v1.9.1/psi4/install/share/psi4/basis/def2-universal-jkfit.gbs 
    atoms 2-3 entry H          line    18 file /Users/deprince/software/psi4/v1.9.1/psi4/install/share/psi4/basis/def2-universal-jkfit.gbs 

   => Loading Basis Set <=

    Name: (DEF2-TZVPPD AUX)
    Role: RIFIT
    Keyword: DF_BASIS_CC
    atoms 1   entry O          line   333 file /Users/deprince/software/psi4/v1.9.1/psi4/install/share/psi4/basis/def2-tzvppd-ri.gbs 
    atoms 2-3 entry H          line    22 file /Users/deprince/software/psi4/v1.9.1/psi4/install/share/psi4/basis/def2-tzvppd-ri.gbs 


Reading options from the HILBERT block
Calling plugin hilbert.so.


Plugins that use gradients: set Da, Db, and Lagrangian for gradient theory on the wavefunction. The old way of passing these will stop working as soon as 1.8.    Molecular point group: c1
    Full point group: C2v

    Geometry (in Angstrom), charge = 0, multiplicity = 1:

       Center              X                  Y                   Z               Mass       
    ------------   -----------------  -----------------  -----------------  -----------------
         O            0.000000000000     0.000000000000    -0.068516219320    15.994914619570
         H            0.000000000000    -0.790689573744     0.543701060715     1.007825032230
         H            0.000000000000     0.790689573744     0.543701060715     1.007825032230

  -AO BASIS SET INFORMATION:
    Name                   = DEF2-TZVPPD
    Blend                  = DEF2-TZVPPD
    Total number of shells = 28
    Number of primitives   = 41
    Number of AO           = 82
    Number of SO           = 74
    Maximum AM             = 3
    Spherical Harmonics    = TRUE

  -Contraction Scheme:
    Atom   Type   All Primitives // Shells:
   ------ ------ --------------------------
       1     O     12s 7p 3d 1f // 6s 4p 3d 1f 
       2     H     5s 3p 1d // 3s 3p 1d 
       3     H     5s 3p 1d // 3s 3p 1d 

  ==> AO Basis Functions <==

    [ DEF2-TZVPPD ]
    spherical
    ****
    O   1
    S   6 1.00
                     27032.38263100           0.00021726
                      4052.38713920           0.00168387
                       922.32722710           0.00873956
                       261.24070989           0.03523997
                        85.35464135           0.11153519
                        31.03503524           0.25588954
    S   2 1.00
                        12.26086073           0.39768731
                         4.99870760           0.24627849
    S   1 1.00
                         1.17031082           1.00000000
    S   1 1.00
                         0.46474741           1.00000000
    S   1 1.00
                         0.18504536           1.00000000
    S   1 1.00
                         0.07028803           1.00000000
    P   4 1.00
                        63.27495480           0.00606851
                        14.62704938           0.04191258
                         4.45012235           0.16153841
                         1.52757996           0.35706951
    P   1 1.00
                         0.52935118           1.00000000
    P   1 1.00
                         0.17478421           1.00000000
    P   1 1.00
                         0.05111275           1.00000000
    D   1 1.00
                         2.31400000           1.00000000
    D   1 1.00
                         0.64500000           1.00000000
    D   1 1.00
                         0.14696477           1.00000000
    F   1 1.00
                         1.42800000           1.00000000
    ****
    H   2
    S   3 1.00
                        34.06134100           0.00602520
                         5.12357460           0.04502109
                         1.16466260           0.20189726
    S   1 1.00
                         0.32723041           1.00000000
    S   1 1.00
                         0.10307241           1.00000000
    P   1 1.00
                         1.40700000           1.00000000
    P   1 1.00
                         0.38800000           1.00000000
    P   1 1.00
                         0.09577413           1.00000000
    D   1 1.00
                         1.05700000           1.00000000
    ****
    H   3
    S   3 1.00
                        34.06134100           0.00602520
                         5.12357460           0.04502109
                         1.16466260           0.20189726
    S   1 1.00
                         0.32723041           1.00000000
    S   1 1.00
                         0.10307241           1.00000000
    P   1 1.00
                         1.40700000           1.00000000
    P   1 1.00
                         0.38800000           1.00000000
    P   1 1.00
                         0.09577413           1.00000000
    D   1 1.00
                         1.05700000           1.00000000
    ****



        *******************************************************
        *                                                     *
        *                                                     *
        *    Polaritonic UKS                                  *
        *                                                     *
        *                                                     *
        *******************************************************
    Molecular point group: c1
    Full point group: C2v

    Geometry (in Angstrom), charge = 0, multiplicity = 1:

       Center              X                  Y                   Z               Mass       
    ------------   -----------------  -----------------  -----------------  -----------------
         O            0.000000000000     0.000000000000    -0.068516219320    15.994914619570
         H            0.000000000000    -0.790689573744     0.543701060715     1.007825032230
         H            0.000000000000     0.790689573744     0.543701060715     1.007825032230

  -AO BASIS SET INFORMATION:
    Name                   = DEF2-TZVPPD
    Blend                  = DEF2-TZVPPD
    Total number of shells = 28
    Number of primitives   = 41
    Number of AO           = 82
    Number of SO           = 74
    Maximum AM             = 3
    Spherical Harmonics    = TRUE

  -Contraction Scheme:
    Atom   Type   All Primitives // Shells:
   ------ ------ --------------------------
       1     O     12s 7p 3d 1f // 6s 4p 3d 1f 
       2     H     5s 3p 1d // 3s 3p 1d 
       3     H     5s 3p 1d // 3s 3p 1d 

  ==> AO Basis Functions <==

    [ DEF2-TZVPPD ]
    spherical
    ****
    O   1
    S   6 1.00
                     27032.38263100           0.00021726
                      4052.38713920           0.00168387
                       922.32722710           0.00873956
                       261.24070989           0.03523997
                        85.35464135           0.11153519
                        31.03503524           0.25588954
    S   2 1.00
                        12.26086073           0.39768731
                         4.99870760           0.24627849
    S   1 1.00
                         1.17031082           1.00000000
    S   1 1.00
                         0.46474741           1.00000000
    S   1 1.00
                         0.18504536           1.00000000
    S   1 1.00
                         0.07028803           1.00000000
    P   4 1.00
                        63.27495480           0.00606851
                        14.62704938           0.04191258
                         4.45012235           0.16153841
                         1.52757996           0.35706951
    P   1 1.00
                         0.52935118           1.00000000
    P   1 1.00
                         0.17478421           1.00000000
    P   1 1.00
                         0.05111275           1.00000000
    D   1 1.00
                         2.31400000           1.00000000
    D   1 1.00
                         0.64500000           1.00000000
    D   1 1.00
                         0.14696477           1.00000000
    F   1 1.00
                         1.42800000           1.00000000
    ****
    H   2
    S   3 1.00
                        34.06134100           0.00602520
                         5.12357460           0.04502109
                         1.16466260           0.20189726
    S   1 1.00
                         0.32723041           1.00000000
    S   1 1.00
                         0.10307241           1.00000000
    P   1 1.00
                         1.40700000           1.00000000
    P   1 1.00
                         0.38800000           1.00000000
    P   1 1.00
                         0.09577413           1.00000000
    D   1 1.00
                         1.05700000           1.00000000
    ****
    H   3
    S   3 1.00
                        34.06134100           0.00602520
                         5.12357460           0.04502109
                         1.16466260           0.20189726
    S   1 1.00
                         0.32723041           1.00000000
    S   1 1.00
                         0.10307241           1.00000000
    P   1 1.00
                         1.40700000           1.00000000
    P   1 1.00
                         0.38800000           1.00000000
    P   1 1.00
                         0.09577413           1.00000000
    D   1 1.00
                         1.05700000           1.00000000
    ****

  ==> DFT Potential <==

   => LibXC <=

    Version 6.2.2
    S. Lehtola, C. Steigemann, M. J.T. Oliveira, and M. A.L. Marques.,  SoftwareX 7, 1–5 (2018) (10.1016/j.softx.2017.11.002)

   => Composite Functional: TPSSH <= 

    TPSSh Hyb-GGA Exchange-Correlation Functional

    V. N. Staroverov, G. E. Scuseria, J. Tao, and J. P. Perdew.,  J. Chem. Phys. 119, 12129 (2003) (10.1063/1.1626543)

    Deriv               =              1
    GGA                 =           TRUE
    Meta                =           TRUE

    Exchange Hybrid     =           TRUE
    MP2 Hybrid          =          FALSE

   => Exchange Functionals <=

    0.9000   Tao, Perdew, Staroverov & Scuseria

   => Exact (HF) Exchange <=

    0.1000               HF 

   => Correlation Functionals <=

    1.0000   Tao, Perdew, Staroverov & Scuseria

   => LibXC Density Thresholds  <==

    XC_HYB_MGGA_XC_TPSSH:  1.00E-15 

   => Molecular Quadrature <=

    Radial Scheme          =       TREUTLER
    Pruning Scheme         =           NONE
    Nuclear Scheme         =       TREUTLER

    Blocking Scheme        =         OCTREE
    BS radius alpha        =              1
    Pruning alpha          =              1
    Radial Points          =             75
    Spherical Points       =            302
    Total Points           =          66724
    Total Blocks           =            557
    Max Points             =            255
    Max Functions          =             74
    Weights Tolerance      =       1.00E-15


    No. basis functions:               74
    No. auxiliary basis functions:    113
    No. alpha electrons:                5
    No. beta electrons:                 5
    e_convergence:              1.000e-10
    d_convergence:              1.000e-10
    maxiter:                          500



    Guess energy:      -73.582850070056

    ==>  Begin SCF Iterations <==

     Iter               energy                   dE          RMS |[F,P]| 
        0     -76.453426515181      -2.870576445125       0.000059461228
        1     -76.453443041585      -0.000016526404       0.000071034787
        2     -76.453421584427       0.000021457157       0.000129543631
        3     -76.453452987815      -0.000031403388       0.000001722402
        4     -76.453452994107      -0.000000006292       0.000000140690
        5     -76.453452994148      -0.000000000041       0.000000024069
        6     -76.453452994149      -0.000000000001       0.000000001158
        7     -76.453452994149       0.000000000000       0.000000000217
        8     -76.453452994149      -0.000000000000       0.000000000005

    SCF iterations converged!


    ==> dipole self-energy: 1/2 lambda^2 ( <mu_e^2> - <mu_e>^2 ) <==

    one-electron part;        0.008573777086
    two-electron part:       -0.002911692830
    total:                    0.005662084256


    ==> dipole variance: ( <mu_e^2> - <mu_e>^2 ) <== 

    one electron (xx):       5.822321531223
    one electron (xy):       0.000000000000
    one electron (xz):       0.000000000000
    one electron (yy):       7.705328020596
    one electron (yz):      -0.000000000000
    one electron (zz):       6.859021669007

    two electron (xx):      -1.787601320293
    two electron (xy):      -0.000000000000
    two electron (xz):      -0.000000000000
    two electron (yy):      -2.834977655642
    two electron (yz):      -0.000000000000
    two electron (zz):      -2.329354264389

    total (xx):              4.034720210929
    total (xy):              0.000000000000
    total (xz):              0.000000000000
    total (yy):              4.870350364954
    total (yz):             -0.000000000000
    total (zz):              4.529667404618

    * Polaritonic UKS total energy:     -76.453452994149

 #  #
 Irrep: 1
      1:  -19.062235784450881
      2:   -0.977230298174144
      3:   -0.498514578402174
      4:   -0.368598456918138
      5:   -0.290846396280274
      6:   -0.003200172005075
      7:    0.054907302050221
      8:    0.087937351427405
      9:    0.104711555737044
     10:    0.140349757801743
     11:    0.170370062389216
     12:    0.198143452581375
     13:    0.207276534581942
     14:    0.229357385814947
     15:    0.269656067072868
     16:    0.279415337080352
     17:    0.320418956741518
     18:    0.405845483400199
     19:    0.425197474396098
     20:    0.457943449862331
     21:    0.505466716029082
     22:    0.512382726110406
     23:    0.611917485373686
     24:    0.673010263285795
     25:    0.682674572996921
     26:    0.683707741704820
     27:    0.868319911268227
     28:    0.945413797708180
     29:    0.951848224681825
     30:    1.012200002249195
     31:    1.078297885706339
     32:    1.144174776503246
     33:    1.256716955652487
     34:    1.315534191070162
     35:    1.817333384016109
     36:    1.874597790334158
     37:    1.939999225325040
     38:    2.059508880120234
     39:    2.199182938475962
     40:    2.536738747515714
     41:    2.713356985243218
     42:    2.734097372384575
     43:    2.985822631643149
     44:    3.120616137690614
     45:    3.199702289555869
     46:    3.279340231080094
     47:    3.326954501298095
     48:    3.339406411592172
     49:    3.364722681989964
     50:    3.608532336046758
     51:    3.808315874801163
     52:    3.862452667866518
     53:    3.946860800680556
     54:    3.991448725686789
     55:    4.082928806629710
     56:    4.121395969176882
     57:    4.192657341115704
     58:    4.628202268869437
     59:    4.629660744485625
     60:    4.902775482205484
     61:    5.092947297774466
     62:    5.578909384468102
     63:    6.078355822487740
     64:    6.352138860540643
     65:    6.410922218507320
     66:    6.541606282712683
     67:    6.588155272573031
     68:    6.682404633107468
     69:    6.801213525054543
     70:    6.916587989527590
     71:    7.385370993893523
     72:    7.489045378880864
     73:    7.749150039597802
     74:   43.812339018769372


 #  #
 Irrep: 1
      1:  -19.062235784450692
      2:   -0.977230298173204
      3:   -0.498514578401752
      4:   -0.368598456918168
      5:   -0.290846396280272
      6:   -0.003200172004348
      7:    0.054907302050201
      8:    0.087937351427410
      9:    0.104711555737087
     10:    0.140349757801686
     11:    0.170370062389697
     12:    0.198143452581303
     13:    0.207276534582627
     14:    0.229357385814888
     15:    0.269656067073339
     16:    0.279415337080052
     17:    0.320418956742480
     18:    0.405845483400075
     19:    0.425197474397286
     20:    0.457943449862312
     21:    0.505466716029632
     22:    0.512382726110344
     23:    0.611917485374431
     24:    0.673010263285618
     25:    0.682674572996996
     26:    0.683707741706137
     27:    0.868319911268559
     28:    0.945413797708198
     29:    0.951848224684866
     30:    1.012200002249157
     31:    1.078297885706848
     32:    1.144174776502960
     33:    1.256716955652654
     34:    1.315534191073610
     35:    1.817333384016122
     36:    1.874597790334146
     37:    1.939999225325320
     38:    2.059508880122149
     39:    2.199182938477706
     40:    2.536738747516795
     41:    2.713356985243951
     42:    2.734097372384501
     43:    2.985822631644086
     44:    3.120616137690600
     45:    3.199702289556027
     46:    3.279340231080116
     47:    3.326954501298280
     48:    3.339406411592194
     49:    3.364722681989946
     50:    3.608532336046733
     51:    3.808315874801165
     52:    3.862452667866522
     53:    3.946860800680598
     54:    3.991448725686807
     55:    4.082928806629717
     56:    4.121395969177223
     57:    4.192657341115583
     58:    4.628202268869516
     59:    4.629660744485794
     60:    4.902775482206671
     61:    5.092947297776695
     62:    5.578909384468110
     63:    6.078355822487894
     64:    6.352138860540683
     65:    6.410922218507345
     66:    6.541606282712965
     67:    6.588155272573050
     68:    6.682404633107796
     69:    6.801213525054523
     70:    6.916587989527588
     71:    7.385370993893450
     72:    7.489045378881763
     73:    7.749150039598937
     74:   43.812339018768597

    QED-DFT total energy (xyz)............................................................PASSED

Scratch directory: /tmp/

Scratch directory: /tmp/
   => Libint2 <=

    Primary   basis highest AM E, G, H:  5, 4, 3
    Auxiliary basis highest AM E, G, H:  6, 5, 4
    Onebody   basis highest AM E, G, H:  6, 5, 4
    Solid Harmonics ordering:            Gaussian

*** tstart() called on wc-dhcp35d189.employee-secure.wireless.fsu.edu
*** at Mon Jul  1 13:31:14 2024

   => Loading Basis Set <=

    Name: DEF2-TZVPPD
    Role: ORBITAL
    Keyword: BASIS
    atoms 1   entry O          line   218 file /Users/deprince/software/psi4/v1.9.1/psi4/install/share/psi4/basis/def2-tzvppd.gbs 
    atoms 2-3 entry H          line    14 file /Users/deprince/software/psi4/v1.9.1/psi4/install/share/psi4/basis/def2-tzvppd.gbs 


         ---------------------------------------------------------
                                   SCF
               by Justin Turney, Rob Parrish, Andy Simmonett
                          and Daniel G. A. Smith
                              UKS Reference
                        1 Threads,    500 MiB Core
         ---------------------------------------------------------

  ==> Geometry <==

    Molecular point group: c1
    Full point group: C2v

    Geometry (in Angstrom), charge = 0, multiplicity = 1:

       Center              X                  Y                   Z               Mass       
    ------------   -----------------  -----------------  -----------------  -----------------
         O            0.000000000000    -0.068516219320     0.000000000000    15.994914619570
         H           -0.790689573744     0.543701060715     0.000000000000     1.007825032230
         H            0.790689573744     0.543701060715     0.000000000000     1.007825032230

  Running in c1 symmetry.

  Rotational constants: A =     25.12555  B =     13.37733  C =      8.72955 [cm^-1]
  Rotational constants: A = 753245.07149  B = 401042.16706  C = 261705.25473 [MHz]
  Nuclear repulsion =    8.801465564563406

  Charge       = 0
  Multiplicity = 1
  Electrons    = 10
  Nalpha       = 5
  Nbeta        = 5

  ==> Algorithm <==

  SCF Algorithm Type is DF.
  DIIS enabled.
  MOM disabled.
  Fractional occupation disabled.
  Guess Type is SAD.
  Energy threshold   = 1.00e-10
  Density threshold  = 1.00e-10
  Integral threshold = 1.00e-12

  ==> Primary Basis <==

  Basis Set: DEF2-TZVPPD
    Blend: DEF2-TZVPPD
    Number of shells: 28
    Number of basis functions: 74
    Number of Cartesian functions: 82
    Spherical Harmonics?: true
    Max angular momentum: 3

  ==> DFT Potential <==

   => LibXC <=

    Version 6.2.2
    S. Lehtola, C. Steigemann, M. J.T. Oliveira, and M. A.L. Marques.,  SoftwareX 7, 1–5 (2018) (10.1016/j.softx.2017.11.002)

   => Composite Functional: TPSSH <= 

    TPSSh Hyb-GGA Exchange-Correlation Functional

    V. N. Staroverov, G. E. Scuseria, J. Tao, and J. P. Perdew.,  J. Chem. Phys. 119, 12129 (2003) (10.1063/1.1626543)

    Deriv               =              1
    GGA                 =           TRUE
    Meta                =           TRUE

    Exchange Hybrid     =           TRUE
    MP2 Hybrid          =          FALSE

   => Exchange Functionals <=

    0.9000   Tao, Perdew, Staroverov & Scuseria

   => Exact (HF) Exchange <=

    0.1000               HF 

   => Correlation Functionals <=

    1.0000   Tao, Perdew, Staroverov & Scuseria

   => LibXC Density Thresholds  <==

    XC_HYB_MGGA_XC_TPSSH:  1.00E-15 

   => Molecular Quadrature <=

    Radial Scheme          =       TREUTLER
    Pruning Scheme         =           NONE
    Nuclear Scheme         =       TREUTLER

    Blocking Scheme        =         OCTREE
    BS radius alpha        =              1
    Pruning alpha          =              1
    Radial Points          =             75
    Spherical Points       =            302
    Total Points           =          66724
    Total Blocks           =            560
    Max Points             =            256
    Max Functions          =             74
    Weights Tolerance      =       1.00E-15

   => Loading Basis Set <=

    Name: (DEF2-TZVPPD AUX)
    Role: JKFIT
    Keyword: DF_BASIS_SCF
    atoms 1   entry O          line   318 file /Users/deprince/software/psi4/v1.9.1/psi4/install/share/psi4/basis/def2-universal-jkfit.gbs 
    atoms 2-3 entry H          line    18 file /Users/deprince/software/psi4/v1.9.1/psi4/install/share/psi4/basis/def2-universal-jkfit.gbs 

  ==> Integral Setup <==

  ==> DiskDFJK: Density-Fitted J/K Matrices <==

    J tasked:                  Yes
    K tasked:                  Yes
    wK tasked:                  No
    OpenMP threads:              1
    Integrals threads:           1
    Memory [MiB]:               18
    Algorithm:                Core
    Integral Cache:           SAVE
    Schwarz Cutoff:          1E-12
    Fitting Condition:       1E-10

   => Auxiliary Basis Set <=

  Basis Set: (DEF2-TZVPPD AUX)
    Blend: DEF2-UNIVERSAL-JKFIT
    Number of shells: 37
    Number of basis functions: 113
    Number of Cartesian functions: 133
    Spherical Harmonics?: true
    Max angular momentum: 4

  Cached 100.0% of DFT collocation blocks in 0.348 [GiB].

  Minimum eigenvalue in the overlap matrix is 7.8812021163E-04.
  Reciprocal condition number of the overlap matrix is 1.2268631735E-04.
    Using symmetric orthogonalization.

  ==> Pre-Iterations <==

  SCF Guess: Superposition of Atomic Densities via on-the-fly atomic UHF (no occupation information).

   -------------------------
    Irrep   Nso     Nmo    
   -------------------------
     A         74      74 
   -------------------------
    Total      74      74
   -------------------------

  ==> Iterations <==

                           Total Energy        Delta E     RMS |[F,P]|

   @DF-UKS iter SAD:   -76.08031840199693   -7.60803e+01   0.00000e+00 
   @DF-UKS iter   1:   -76.27801403090443   -1.97696e-01   9.73962e-03 ADIIS/DIIS
   @DF-UKS iter   2:   -75.65428927880733    6.23725e-01   1.87770e-02 ADIIS/DIIS
   @DF-UKS iter   3:   -76.45889713038817   -8.04608e-01   3.92377e-04 ADIIS/DIIS
   @DF-UKS iter   4:   -76.45909512277777   -1.97992e-04   1.51761e-04 ADIIS/DIIS
   @DF-UKS iter   5:   -76.45914010067696   -4.49779e-05   1.95970e-05 DIIS
   @DF-UKS iter   6:   -76.45914082190599   -7.21229e-07   2.01961e-06 DIIS
   @DF-UKS iter   7:   -76.45914082882655   -6.92056e-09   8.34876e-08 DIIS
   @DF-UKS iter   8:   -76.45914082884548   -1.89289e-11   1.04136e-08 DIIS
   @DF-UKS iter   9:   -76.45914082884568   -1.98952e-13   3.57192e-10 DIIS
   @DF-UKS iter  10:   -76.45914082884568    0.00000e+00   1.90075e-11 DIIS
  Energy and wave function converged.


  ==> Post-Iterations <==

   Electrons on quadrature grid:
      Nalpha   =    5.0000000031 ; deviation = 3.108e-09
      Nbeta    =    5.0000000031 ; deviation = 3.108e-09
      Ntotal   =   10.0000000062 ; deviation = 6.217e-09 

   @Spin Contamination Metric:  -3.019806627E-14
   @S^2 Expected:                0.000000000E+00
   @S^2 Observed:               -3.019806627E-14
   @S   Expected:                0.000000000E+00
   @S   Observed:                0.000000000E+00

    Orbital Energies [Eh]
    ---------------------

    Alpha Occupied:                                                       

       1A    -19.064970     2A     -0.978362     3A     -0.500624  
       4A     -0.370833     5A     -0.293116  

    Alpha Virtual:                                                        

       6A     -0.012230     7A      0.046495     8A      0.080046  
       9A      0.081773    10A      0.131238    11A      0.158702  
      12A      0.192397    13A      0.194785    14A      0.220133  
      15A      0.257452    16A      0.267982    17A      0.311739  
      18A      0.395987    19A      0.414696    20A      0.451833  
      21A      0.494368    22A      0.507448    23A      0.605338  
      24A      0.666736    25A      0.675740    26A      0.678041  
      27A      0.863236    28A      0.942103    29A      0.945592  
      30A      1.008757    31A      1.071862    32A      1.138944  
      33A      1.251297    34A      1.309959    35A      1.814278  
      36A      1.872035    37A      1.936286    38A      2.055809  
      39A      2.195283    40A      2.532896    41A      2.709943  
      42A      2.731306    43A      2.982260    44A      3.117846  
      45A      3.197205    46A      3.276303    47A      3.323515  
      48A      3.336227    49A      3.362111    50A      3.605539  
      51A      3.805825    52A      3.859815    53A      3.943143  
      54A      3.988523    55A      4.080444    56A      4.118340  
      57A      4.189121    58A      4.625184    59A      4.626979  
      60A      4.899912    61A      5.089950    62A      5.576311  
      63A      6.075576    64A      6.349695    65A      6.408641  
      66A      6.539171    67A      6.585497    68A      6.679207  
      69A      6.798710    70A      6.914134    71A      7.382475  
      72A      7.486332    73A      7.746431    74A     43.809546  

    Beta Occupied:                                                        

       1A    -19.064970     2A     -0.978362     3A     -0.500624  
       4A     -0.370833     5A     -0.293116  

    Beta Virtual:                                                         

       6A     -0.012230     7A      0.046495     8A      0.080046  
       9A      0.081773    10A      0.131238    11A      0.158702  
      12A      0.192397    13A      0.194785    14A      0.220133  
      15A      0.257452    16A      0.267982    17A      0.311739  
      18A      0.395987    19A      0.414696    20A      0.451833  
      21A      0.494368    22A      0.507448    23A      0.605338  
      24A      0.666736    25A      0.675740    26A      0.678041  
      27A      0.863236    28A      0.942103    29A      0.945592  
      30A      1.008757    31A      1.071862    32A      1.138944  
      33A      1.251297    34A      1.309959    35A      1.814278  
      36A      1.872035    37A      1.936286    38A      2.055809  
      39A      2.195283    40A      2.532896    41A      2.709943  
      42A      2.731306    43A      2.982260    44A      3.117846  
      45A      3.197205    46A      3.276303    47A      3.323515  
      48A      3.336227    49A      3.362111    50A      3.605539  
      51A      3.805825    52A      3.859815    53A      3.943143  
      54A      3.988523    55A      4.080444    56A      4.118340  
      57A      4.189121    58A      4.625184    59A      4.626979  
      60A      4.899912    61A      5.089950    62A      5.576311  
      63A      6.075576    64A      6.349695    65A      6.408641  
      66A      6.539171    67A      6.585497    68A      6.679207  
      69A      6.798710    70A      6.914134    71A      7.382475  
      72A      7.486332    73A      7.746431    74A     43.809546  

    Final Occupation by Irrep:
              A 
    DOCC [     5 ]
    SOCC [     0 ]
    NA   [     5 ]
    NB   [     5 ]

  @DF-UKS Final Energy:   -76.45914082884568

   => Energetics <=

    Nuclear Repulsion Energy =              8.8014655645634061
    One-Electron Energy =                -122.3530360183946186
    Two-Electron Energy =                  45.4971098751153207
    DFT Exchange-Correlation Energy =      -8.4046802501297897
    Empirical Dispersion Energy =           0.0000000000000000
    VV10 Nonlocal Energy =                  0.0000000000000000
    Total Energy =                        -76.4591408288456762

  UHF NO Occupations:
  HONO-2 :    3  A 2.0000000
  HONO-1 :    4  A 2.0000000
  HONO-0 :    5  A 2.0000000
  LUNO+0 :    6  A 0.0000000
  LUNO+1 :    7  A 0.0000000
  LUNO+2 :    8  A 0.0000000
  LUNO+3 :    9  A 0.0000000


Computation Completed


Properties will be evaluated at   0.000000,   0.000000,   0.000000 [a0]

Properties computed using the SCF density matrix


 Multipole Moments:

 ------------------------------------------------------------------------------------
     Multipole            Electronic (a.u.)      Nuclear  (a.u.)        Total (a.u.)
 ------------------------------------------------------------------------------------

 L = 1.  Multiply by 2.5417464519 to convert [e a0] to [Debye]
 Dipole X            :         -0.0000000            0.0000000           -0.0000000
 Dipole Y            :         -0.2932123            1.0190771            0.7258648
 Dipole Z            :         -0.0000000            0.0000000           -0.0000000
 Magnitude           :                                                    0.7258648

 ------------------------------------------------------------------------------------

*** tstop() called on wc-dhcp35d189.employee-secure.wireless.fsu.edu at Mon Jul  1 13:31:16 2024
Module time:
	user time   =       2.49 seconds =       0.04 minutes
	system time =       0.09 seconds =       0.00 minutes
	total time  =          2 seconds =       0.03 minutes
Total time:
	user time   =       8.10 seconds =       0.13 minutes
	system time =       0.35 seconds =       0.01 minutes
	total time  =          8 seconds =       0.13 minutes
   => Loading Basis Set <=

    Name: (DEF2-TZVPPD AUX)
    Role: JKFIT
    Keyword: DF_BASIS_SCF
    atoms 1   entry O          line   318 file /Users/deprince/software/psi4/v1.9.1/psi4/install/share/psi4/basis/def2-universal-jkfit.gbs 
    atoms 2-3 entry H          line    18 file /Users/deprince/software/psi4/v1.9.1/psi4/install/share/psi4/basis/def2-universal-jkfit.gbs 

   => Loading Basis Set <=

    Name: (DEF2-TZVPPD AUX)
    Role: RIFIT
    Keyword: DF_BASIS_CC
    atoms 1   entry O          line   333 file /Users/deprince/software/psi4/v1.9.1/psi4/install/share/psi4/basis/def2-tzvppd-ri.gbs 
    atoms 2-3 entry H          line    22 file /Users/deprince/software/psi4/v1.9.1/psi4/install/share/psi4/basis/def2-tzvppd-ri.gbs 


Reading options from the HILBERT block
Calling plugin hilbert.so.


Plugins that use gradients: set Da, Db, and Lagrangian for gradient theory on the wavefunction. The old way of passing these will stop working as soon as 1.8.    Molecular point group: c1
    Full point group: C2v

    Geometry (in Angstrom), charge = 0, multiplicity = 1:

       Center              X                  Y                   Z               Mass       
    ------------   -----------------  -----------------  -----------------  -----------------
         O            0.000000000000    -0.068516219320     0.000000000000    15.994914619570
         H           -0.790689573744     0.543701060715     0.000000000000     1.007825032230
         H            0.790689573744     0.543701060715     0.000000000000     1.007825032230

  -AO BASIS SET INFORMATION:
    Name                   = DEF2-TZVPPD
    Blend                  = DEF2-TZVPPD
    Total number of shells = 28
    Number of primitives   = 41
    Number of AO           = 82
    Number of SO           = 74
    Maximum AM             = 3
    Spherical Harmonics    = TRUE

  -Contraction Scheme:
    Atom   Type   All Primitives // Shells:
   ------ ------ --------------------------
       1     O     12s 7p 3d 1f // 6s 4p 3d 1f 
       2     H     5s 3p 1d // 3s 3p 1d 
       3     H     5s 3p 1d // 3s 3p 1d 

  ==> AO Basis Functions <==

    [ DEF2-TZVPPD ]
    spherical
    ****
    O   1
    S   6 1.00
                     27032.38263100           0.00021726
                      4052.38713920           0.00168387
                       922.32722710           0.00873956
                       261.24070989           0.03523997
                        85.35464135           0.11153519
                        31.03503524           0.25588954
    S   2 1.00
                        12.26086073           0.39768731
                         4.99870760           0.24627849
    S   1 1.00
                         1.17031082           1.00000000
    S   1 1.00
                         0.46474741           1.00000000
    S   1 1.00
                         0.18504536           1.00000000
    S   1 1.00
                         0.07028803           1.00000000
    P   4 1.00
                        63.27495480           0.00606851
                        14.62704938           0.04191258
                         4.45012235           0.16153841
                         1.52757996           0.35706951
    P   1 1.00
                         0.52935118           1.00000000
    P   1 1.00
                         0.17478421           1.00000000
    P   1 1.00
                         0.05111275           1.00000000
    D   1 1.00
                         2.31400000           1.00000000
    D   1 1.00
                         0.64500000           1.00000000
    D   1 1.00
                         0.14696477           1.00000000
    F   1 1.00
                         1.42800000           1.00000000
    ****
    H   2
    S   3 1.00
                        34.06134100           0.00602520
                         5.12357460           0.04502109
                         1.16466260           0.20189726
    S   1 1.00
                         0.32723041           1.00000000
    S   1 1.00
                         0.10307241           1.00000000
    P   1 1.00
                         1.40700000           1.00000000
    P   1 1.00
                         0.38800000           1.00000000
    P   1 1.00
                         0.09577413           1.00000000
    D   1 1.00
                         1.05700000           1.00000000
    ****
    H   3
    S   3 1.00
                        34.06134100           0.00602520
                         5.12357460           0.04502109
                         1.16466260           0.20189726
    S   1 1.00
                         0.32723041           1.00000000
    S   1 1.00
                         0.10307241           1.00000000
    P   1 1.00
                         1.40700000           1.00000000
    P   1 1.00
                         0.38800000           1.00000000
    P   1 1.00
                         0.09577413           1.00000000
    D   1 1.00
                         1.05700000           1.00000000
    ****



        *******************************************************
        *                                                     *
        *                                                     *
        *    Polaritonic UKS                                  *
        *                                                     *
        *                                                     *
        *******************************************************
    Molecular point group: c1
    Full point group: C2v

    Geometry (in Angstrom), charge = 0, multiplicity = 1:

       Center              X                  Y                   Z               Mass       
    ------------   -----------------  -----------------  -----------------  -----------------
         O            0.000000000000    -0.068516219320     0.000000000000    15.994914619570
         H           -0.790689573744     0.543701060715     0.000000000000     1.007825032230
         H            0.790689573744     0.543701060715     0.000000000000     1.007825032230

  -AO BASIS SET INFORMATION:
    Name                   = DEF2-TZVPPD
    Blend                  = DEF2-TZVPPD
    Total number of shells = 28
    Number of primitives   = 41
    Number of AO           = 82
    Number of SO           = 74
    Maximum AM             = 3
    Spherical Harmonics    = TRUE

  -Contraction Scheme:
    Atom   Type   All Primitives // Shells:
   ------ ------ --------------------------
       1     O     12s 7p 3d 1f // 6s 4p 3d 1f 
       2     H     5s 3p 1d // 3s 3p 1d 
       3     H     5s 3p 1d // 3s 3p 1d 

  ==> AO Basis Functions <==

    [ DEF2-TZVPPD ]
    spherical
    ****
    O   1
    S   6 1.00
                     27032.38263100           0.00021726
                      4052.38713920           0.00168387
                       922.32722710           0.00873956
                       261.24070989           0.03523997
                        85.35464135           0.11153519
                        31.03503524           0.25588954
    S   2 1.00
                        12.26086073           0.39768731
                         4.99870760           0.24627849
    S   1 1.00
                         1.17031082           1.00000000
    S   1 1.00
                         0.46474741           1.00000000
    S   1 1.00
                         0.18504536           1.00000000
    S   1 1.00
                         0.07028803           1.00000000
    P   4 1.00
                        63.27495480           0.00606851
                        14.62704938           0.04191258
                         4.45012235           0.16153841
                         1.52757996           0.35706951
    P   1 1.00
                         0.52935118           1.00000000
    P   1 1.00
                         0.17478421           1.00000000
    P   1 1.00
                         0.05111275           1.00000000
    D   1 1.00
                         2.31400000           1.00000000
    D   1 1.00
                         0.64500000           1.00000000
    D   1 1.00
                         0.14696477           1.00000000
    F   1 1.00
                         1.42800000           1.00000000
    ****
    H   2
    S   3 1.00
                        34.06134100           0.00602520
                         5.12357460           0.04502109
                         1.16466260           0.20189726
    S   1 1.00
                         0.32723041           1.00000000
    S   1 1.00
                         0.10307241           1.00000000
    P   1 1.00
                         1.40700000           1.00000000
    P   1 1.00
                         0.38800000           1.00000000
    P   1 1.00
                         0.09577413           1.00000000
    D   1 1.00
                         1.05700000           1.00000000
    ****
    H   3
    S   3 1.00
                        34.06134100           0.00602520
                         5.12357460           0.04502109
                         1.16466260           0.20189726
    S   1 1.00
                         0.32723041           1.00000000
    S   1 1.00
                         0.10307241           1.00000000
    P   1 1.00
                         1.40700000           1.00000000
    P   1 1.00
                         0.38800000           1.00000000
    P   1 1.00
                         0.09577413           1.00000000
    D   1 1.00
                         1.05700000           1.00000000
    ****

  ==> DFT Potential <==

   => LibXC <=

    Version 6.2.2
    S. Lehtola, C. Steigemann, M. J.T. Oliveira, and M. A.L. Marques.,  SoftwareX 7, 1–5 (2018) (10.1016/j.softx.2017.11.002)

   => Composite Functional: TPSSH <= 

    TPSSh Hyb-GGA Exchange-Correlation Functional

    V. N. Staroverov, G. E. Scuseria, J. Tao, and J. P. Perdew.,  J. Chem. Phys. 119, 12129 (2003) (10.1063/1.1626543)

    Deriv               =              1
    GGA                 =           TRUE
    Meta                =           TRUE

    Exchange Hybrid     =           TRUE
    MP2 Hybrid          =          FALSE

   => Exchange Functionals <=

    0.9000   Tao, Perdew, Staroverov & Scuseria

   => Exact (HF) Exchange <=

    0.1000               HF 

   => Correlation Functionals <=

    1.0000   Tao, Perdew, Staroverov & Scuseria

   => LibXC Density Thresholds  <==

    XC_HYB_MGGA_XC_TPSSH:  1.00E-15 

   => Molecular Quadrature <=

    Radial Scheme          =       TREUTLER
    Pruning Scheme         =           NONE
    Nuclear Scheme         =       TREUTLER

    Blocking Scheme        =         OCTREE
    BS radius alpha        =              1
    Pruning alpha          =              1
    Radial Points          =             75
    Spherical Points       =            302
    Total Points           =          66724
    Total Blocks           =            560
    Max Points             =            256
    Max Functions          =             74
    Weights Tolerance      =       1.00E-15


    No. basis functions:               74
    No. auxiliary basis functions:    113
    No. alpha electrons:                5
    No. beta electrons:                 5
    e_convergence:              1.000e-10
    d_convergence:              1.000e-10
    maxiter:                          500



    Guess energy:      -73.582850070053

    ==>  Begin SCF Iterations <==

     Iter               energy                   dE          RMS |[F,P]| 
        0     -76.453426515178      -2.870576445124       0.000059461228
        1     -76.453443041582      -0.000016526404       0.000071034787
        2     -76.453421584424       0.000021457158       0.000129543631
        3     -76.453452987812      -0.000031403388       0.000001722402
        4     -76.453452994104      -0.000000006292       0.000000140690
        5     -76.453452994145      -0.000000000041       0.000000024069
        6     -76.453452994147      -0.000000000001       0.000000001158
        7     -76.453452994147       0.000000000000       0.000000000217
        8     -76.453452994147      -0.000000000000       0.000000000005

    SCF iterations converged!


    ==> dipole self-energy: 1/2 lambda^2 ( <mu_e^2> - <mu_e>^2 ) <==

    one-electron part;        0.008573777086
    two-electron part:       -0.002911692830
    total:                    0.005662084256


    ==> dipole variance: ( <mu_e^2> - <mu_e>^2 ) <== 

    one electron (xx):       5.822321531225
    one electron (xy):       0.000000000000
    one electron (xz):      -0.000000000000
    one electron (yy):       7.705328020600
    one electron (yz):       0.000000000001
    one electron (zz):       6.859021669009

    two electron (xx):      -1.787601320294
    two electron (xy):      -0.000000000000
    two electron (xz):      -0.000000000000
    two electron (yy):      -2.834977655643
    two electron (yz):       0.000000000000
    two electron (zz):      -2.329354264389

    total (xx):              4.034720210931
    total (xy):              0.000000000000
    total (xz):             -0.000000000000
    total (yy):              4.870350364956
    total (yz):              0.000000000001
    total (zz):              4.529667404620

    * Polaritonic UKS total energy:     -76.453452994147

 #  #
 Irrep: 1
      1:  -19.062235784446173
      2:   -0.977230298165689
      3:   -0.498514578398148
      4:   -0.368598456909241
      5:   -0.290846396269034
      6:   -0.003200172007591
      7:    0.054907302046618
      8:    0.087937351424053
      9:    0.104711555731182
     10:    0.140349757798570
     11:    0.170370062387423
     12:    0.198143452577624
     13:    0.207276534580307
     14:    0.229357385810342
     15:    0.269656067071105
     16:    0.279415337073702
     17:    0.320418956741352
     18:    0.405845483396224
     19:    0.425197474398700
     20:    0.457943449865792
     21:    0.505466716029363
     22:    0.512382726111041
     23:    0.611917485374642
     24:    0.673010263283445
     25:    0.682674572997430
     26:    0.683707741708959
     27:    0.868319911267526
     28:    0.945413797707090
     29:    0.951848224694971
     30:    1.012200002248350
     31:    1.078297885704361
     32:    1.144174776501104
     33:    1.256716955646649
     34:    1.315534191071916
     35:    1.817333384023808
     36:    1.874597790340049
     37:    1.939999225331906
     38:    2.059508880126796
     39:    2.199182938469235
     40:    2.536738747502059
     41:    2.713356985231221
     42:    2.734097372392098
     43:    2.985822631646263
     44:    3.120616137686749
     45:    3.199702289551426
     46:    3.279340231075122
     47:    3.326954501296137
     48:    3.339406411584918
     49:    3.364722681983529
     50:    3.608532336041325
     51:    3.808315874796028
     52:    3.862452667856037
     53:    3.946860800667888
     54:    3.991448725681159
     55:    4.082928806630272
     56:    4.121395969175683
     57:    4.192657341107066
     58:    4.628202268870609
     59:    4.629660744480717
     60:    4.902775482195522
     61:    5.092947297760416
     62:    5.578909384479580
     63:    6.078355822495023
     64:    6.352138860550400
     65:    6.410922218518750
     66:    6.541606282718606
     67:    6.588155272583784
     68:    6.682404633118129
     69:    6.801213525063432
     70:    6.916587989536812
     71:    7.385370993902353
     72:    7.489045378877549
     73:    7.749150039597758
     74:   43.812339018775333


 #  #
 Irrep: 1
      1:  -19.062235784446159
      2:   -0.977230298164373
      3:   -0.498514578398437
      4:   -0.368598456909218
      5:   -0.290846396269030
      6:   -0.003200172007499
      7:    0.054907302046542
      8:    0.087937351424059
      9:    0.104711555731181
     10:    0.140349757798439
     11:    0.170370062387242
     12:    0.198143452577630
     13:    0.207276534579843
     14:    0.229357385810258
     15:    0.269656067070584
     16:    0.279415337072968
     17:    0.320418956739336
     18:    0.405845483395146
     19:    0.425197474397959
     20:    0.457943449865697
     21:    0.505466716029226
     22:    0.512382726111000
     23:    0.611917485374367
     24:    0.673010263283700
     25:    0.682674572997395
     26:    0.683707741708309
     27:    0.868319911264062
     28:    0.945413797707091
     29:    0.951848224692843
     30:    1.012200002248391
     31:    1.078297885704000
     32:    1.144174776499683
     33:    1.256716955645431
     34:    1.315534191070237
     35:    1.817333384023817
     36:    1.874597790340081
     37:    1.939999225331829
     38:    2.059508880125214
     39:    2.199182938464582
     40:    2.536738747502120
     41:    2.713356985230186
     42:    2.734097372392117
     43:    2.985822631644160
     44:    3.120616137686772
     45:    3.199702289551404
     46:    3.279340231074990
     47:    3.326954501296906
     48:    3.339406411584887
     49:    3.364722681983539
     50:    3.608532336041241
     51:    3.808315874796028
     52:    3.862452667856034
     53:    3.946860800667915
     54:    3.991448725681173
     55:    4.082928806630279
     56:    4.121395969175263
     57:    4.192657341106975
     58:    4.628202268870598
     59:    4.629660744480127
     60:    4.902775482193459
     61:    5.092947297760690
     62:    5.578909384479593
     63:    6.078355822495046
     64:    6.352138860550405
     65:    6.410922218518762
     66:    6.541606282718341
     67:    6.588155272583807
     68:    6.682404633117991
     69:    6.801213525063458
     70:    6.916587989536766
     71:    7.385370993902218
     72:    7.489045378876320
     73:    7.749150039598498
     74:   43.812339018775361

    QED-DFT total energy (zxy)............................................................PASSED

Scratch directory: /tmp/

Scratch directory: /tmp/
   => Libint2 <=

    Primary   basis highest AM E, G, H:  5, 4, 3
    Auxiliary basis highest AM E, G, H:  6, 5, 4
    Onebody   basis highest AM E, G, H:  6, 5, 4
    Solid Harmonics ordering:            Gaussian

*** tstart() called on wc-dhcp35d189.employee-secure.wireless.fsu.edu
*** at Mon Jul  1 13:31:20 2024

   => Loading Basis Set <=

    Name: DEF2-TZVPPD
    Role: ORBITAL
    Keyword: BASIS
    atoms 1   entry O          line   218 file /Users/deprince/software/psi4/v1.9.1/psi4/install/share/psi4/basis/def2-tzvppd.gbs 
    atoms 2-3 entry H          line    14 file /Users/deprince/software/psi4/v1.9.1/psi4/install/share/psi4/basis/def2-tzvppd.gbs 


         ---------------------------------------------------------
                                   SCF
               by Justin Turney, Rob Parrish, Andy Simmonett
                          and Daniel G. A. Smith
                              UKS Reference
                        1 Threads,    500 MiB Core
         ---------------------------------------------------------

  ==> Geometry <==

    Molecular point group: c1
    Full point group: C2v

    Geometry (in Angstrom), charge = 0, multiplicity = 1:

       Center              X                  Y                   Z               Mass       
    ------------   -----------------  -----------------  -----------------  -----------------
         O           -0.068516219320     0.000000000000     0.000000000000    15.994914619570
         H            0.543701060715     0.000000000000    -0.790689573744     1.007825032230
         H            0.543701060715     0.000000000000     0.790689573744     1.007825032230

  Running in c1 symmetry.

  Rotational constants: A =     25.12555  B =     13.37733  C =      8.72955 [cm^-1]
  Rotational constants: A = 753245.07149  B = 401042.16706  C = 261705.25473 [MHz]
  Nuclear repulsion =    8.801465564563406

  Charge       = 0
  Multiplicity = 1
  Electrons    = 10
  Nalpha       = 5
  Nbeta        = 5

  ==> Algorithm <==

  SCF Algorithm Type is DF.
  DIIS enabled.
  MOM disabled.
  Fractional occupation disabled.
  Guess Type is SAD.
  Energy threshold   = 1.00e-10
  Density threshold  = 1.00e-10
  Integral threshold = 1.00e-12

  ==> Primary Basis <==

  Basis Set: DEF2-TZVPPD
    Blend: DEF2-TZVPPD
    Number of shells: 28
    Number of basis functions: 74
    Number of Cartesian functions: 82
    Spherical Harmonics?: true
    Max angular momentum: 3

  ==> DFT Potential <==

   => LibXC <=

    Version 6.2.2
    S. Lehtola, C. Steigemann, M. J.T. Oliveira, and M. A.L. Marques.,  SoftwareX 7, 1–5 (2018) (10.1016/j.softx.2017.11.002)

   => Composite Functional: TPSSH <= 

    TPSSh Hyb-GGA Exchange-Correlation Functional

    V. N. Staroverov, G. E. Scuseria, J. Tao, and J. P. Perdew.,  J. Chem. Phys. 119, 12129 (2003) (10.1063/1.1626543)

    Deriv               =              1
    GGA                 =           TRUE
    Meta                =           TRUE

    Exchange Hybrid     =           TRUE
    MP2 Hybrid          =          FALSE

   => Exchange Functionals <=

    0.9000   Tao, Perdew, Staroverov & Scuseria

   => Exact (HF) Exchange <=

    0.1000               HF 

   => Correlation Functionals <=

    1.0000   Tao, Perdew, Staroverov & Scuseria

   => LibXC Density Thresholds  <==

    XC_HYB_MGGA_XC_TPSSH:  1.00E-15 

   => Molecular Quadrature <=

    Radial Scheme          =       TREUTLER
    Pruning Scheme         =           NONE
    Nuclear Scheme         =       TREUTLER

    Blocking Scheme        =         OCTREE
    BS radius alpha        =              1
    Pruning alpha          =              1
    Radial Points          =             75
    Spherical Points       =            302
    Total Points           =          66724
    Total Blocks           =            554
    Max Points             =            255
    Max Functions          =             74
    Weights Tolerance      =       1.00E-15

   => Loading Basis Set <=

    Name: (DEF2-TZVPPD AUX)
    Role: JKFIT
    Keyword: DF_BASIS_SCF
    atoms 1   entry O          line   318 file /Users/deprince/software/psi4/v1.9.1/psi4/install/share/psi4/basis/def2-universal-jkfit.gbs 
    atoms 2-3 entry H          line    18 file /Users/deprince/software/psi4/v1.9.1/psi4/install/share/psi4/basis/def2-universal-jkfit.gbs 

  ==> Integral Setup <==

  ==> DiskDFJK: Density-Fitted J/K Matrices <==

    J tasked:                  Yes
    K tasked:                  Yes
    wK tasked:                  No
    OpenMP threads:              1
    Integrals threads:           1
    Memory [MiB]:               19
    Algorithm:                Core
    Integral Cache:           SAVE
    Schwarz Cutoff:          1E-12
    Fitting Condition:       1E-10

   => Auxiliary Basis Set <=

  Basis Set: (DEF2-TZVPPD AUX)
    Blend: DEF2-UNIVERSAL-JKFIT
    Number of shells: 37
    Number of basis functions: 113
    Number of Cartesian functions: 133
    Spherical Harmonics?: true
    Max angular momentum: 4

  Cached 100.0% of DFT collocation blocks in 0.347 [GiB].

  Minimum eigenvalue in the overlap matrix is 7.8812021163E-04.
  Reciprocal condition number of the overlap matrix is 1.2268631735E-04.
    Using symmetric orthogonalization.

  ==> Pre-Iterations <==

  SCF Guess: Superposition of Atomic Densities via on-the-fly atomic UHF (no occupation information).

   -------------------------
    Irrep   Nso     Nmo    
   -------------------------
     A         74      74 
   -------------------------
    Total      74      74
   -------------------------

  ==> Iterations <==

                           Total Energy        Delta E     RMS |[F,P]|

   @DF-UKS iter SAD:   -76.08031840199763   -7.60803e+01   0.00000e+00 
   @DF-UKS iter   1:   -76.27801403090498   -1.97696e-01   9.73962e-03 ADIIS/DIIS
   @DF-UKS iter   2:   -75.65428927880610    6.23725e-01   1.87770e-02 ADIIS/DIIS
   @DF-UKS iter   3:   -76.45889713038912   -8.04608e-01   3.92377e-04 ADIIS/DIIS
   @DF-UKS iter   4:   -76.45909512277873   -1.97992e-04   1.51761e-04 ADIIS/DIIS
   @DF-UKS iter   5:   -76.45914010067796   -4.49779e-05   1.95970e-05 DIIS
   @DF-UKS iter   6:   -76.45914082190698   -7.21229e-07   2.01961e-06 DIIS
   @DF-UKS iter   7:   -76.45914082882749   -6.92050e-09   8.34876e-08 DIIS
   @DF-UKS iter   8:   -76.45914082884629   -1.88010e-11   1.04136e-08 DIIS
   @DF-UKS iter   9:   -76.45914082884656   -2.70006e-13   3.57191e-10 DIIS
   @DF-UKS iter  10:   -76.45914082884660   -4.26326e-14   1.90071e-11 DIIS
  Energy and wave function converged.


  ==> Post-Iterations <==

   Electrons on quadrature grid:
      Nalpha   =    5.0000000031 ; deviation = 3.108e-09
      Nbeta    =    5.0000000031 ; deviation = 3.108e-09
      Ntotal   =   10.0000000062 ; deviation = 6.217e-09 

   @Spin Contamination Metric:  -3.286260153E-14
   @S^2 Expected:                0.000000000E+00
   @S^2 Observed:               -3.286260153E-14
   @S   Expected:                0.000000000E+00
   @S   Observed:                0.000000000E+00

    Orbital Energies [Eh]
    ---------------------

    Alpha Occupied:                                                       

       1A    -19.064970     2A     -0.978362     3A     -0.500624  
       4A     -0.370833     5A     -0.293116  

    Alpha Virtual:                                                        

       6A     -0.012230     7A      0.046495     8A      0.080046  
       9A      0.081773    10A      0.131238    11A      0.158702  
      12A      0.192397    13A      0.194785    14A      0.220133  
      15A      0.257452    16A      0.267982    17A      0.311739  
      18A      0.395987    19A      0.414696    20A      0.451833  
      21A      0.494368    22A      0.507448    23A      0.605338  
      24A      0.666736    25A      0.675740    26A      0.678041  
      27A      0.863236    28A      0.942103    29A      0.945592  
      30A      1.008757    31A      1.071862    32A      1.138944  
      33A      1.251297    34A      1.309959    35A      1.814278  
      36A      1.872035    37A      1.936286    38A      2.055809  
      39A      2.195283    40A      2.532896    41A      2.709943  
      42A      2.731306    43A      2.982260    44A      3.117846  
      45A      3.197205    46A      3.276303    47A      3.323515  
      48A      3.336227    49A      3.362111    50A      3.605539  
      51A      3.805825    52A      3.859815    53A      3.943143  
      54A      3.988523    55A      4.080444    56A      4.118340  
      57A      4.189121    58A      4.625184    59A      4.626979  
      60A      4.899912    61A      5.089950    62A      5.576311  
      63A      6.075576    64A      6.349695    65A      6.408641  
      66A      6.539171    67A      6.585497    68A      6.679207  
      69A      6.798710    70A      6.914134    71A      7.382475  
      72A      7.486332    73A      7.746431    74A     43.809546  

    Beta Occupied:                                                        

       1A    -19.064970     2A     -0.978362     3A     -0.500624  
       4A     -0.370833     5A     -0.293116  

    Beta Virtual:                                                         

       6A     -0.012230     7A      0.046495     8A      0.080046  
       9A      0.081773    10A      0.131238    11A      0.158702  
      12A      0.192397    13A      0.194785    14A      0.220133  
      15A      0.257452    16A      0.267982    17A      0.311739  
      18A      0.395987    19A      0.414696    20A      0.451833  
      21A      0.494368    22A      0.507448    23A      0.605338  
      24A      0.666736    25A      0.675740    26A      0.678041  
      27A      0.863236    28A      0.942103    29A      0.945592  
      30A      1.008757    31A      1.071862    32A      1.138944  
      33A      1.251297    34A      1.309959    35A      1.814278  
      36A      1.872035    37A      1.936286    38A      2.055809  
      39A      2.195283    40A      2.532896    41A      2.709943  
      42A      2.731306    43A      2.982260    44A      3.117846  
      45A      3.197205    46A      3.276303    47A      3.323515  
      48A      3.336227    49A      3.362111    50A      3.605539  
      51A      3.805825    52A      3.859815    53A      3.943143  
      54A      3.988523    55A      4.080444    56A      4.118340  
      57A      4.189121    58A      4.625184    59A      4.626979  
      60A      4.899912    61A      5.089950    62A      5.576311  
      63A      6.075576    64A      6.349695    65A      6.408641  
      66A      6.539171    67A      6.585497    68A      6.679207  
      69A      6.798710    70A      6.914134    71A      7.382475  
      72A      7.486332    73A      7.746431    74A     43.809546  

    Final Occupation by Irrep:
              A 
    DOCC [     5 ]
    SOCC [     0 ]
    NA   [     5 ]
    NB   [     5 ]

  @DF-UKS Final Energy:   -76.45914082884660

   => Energetics <=

    Nuclear Repulsion Energy =              8.8014655645634061
    One-Electron Energy =                -122.3530360183966081
    Two-Electron Energy =                  45.4971098751166636
    DFT Exchange-Correlation Energy =      -8.4046802501300615
    Empirical Dispersion Energy =           0.0000000000000000
    VV10 Nonlocal Energy =                  0.0000000000000000
    Total Energy =                        -76.4591408288465999

  UHF NO Occupations:
  HONO-2 :    3  A 2.0000000
  HONO-1 :    4  A 2.0000000
  HONO-0 :    5  A 2.0000000
  LUNO+0 :    6  A 0.0000000
  LUNO+1 :    7  A 0.0000000
  LUNO+2 :    8  A 0.0000000
  LUNO+3 :    9  A 0.0000000


Computation Completed


Properties will be evaluated at   0.000000,   0.000000,   0.000000 [a0]

Properties computed using the SCF density matrix


 Multipole Moments:

 ------------------------------------------------------------------------------------
     Multipole            Electronic (a.u.)      Nuclear  (a.u.)        Total (a.u.)
 ------------------------------------------------------------------------------------

 L = 1.  Multiply by 2.5417464519 to convert [e a0] to [Debye]
 Dipole X            :         -0.2932123            1.0190771            0.7258648
 Dipole Y            :         -0.0000000            0.0000000           -0.0000000
 Dipole Z            :         -0.0000000            0.0000000           -0.0000000
 Magnitude           :                                                    0.7258648

 ------------------------------------------------------------------------------------

*** tstop() called on wc-dhcp35d189.employee-secure.wireless.fsu.edu at Mon Jul  1 13:31:22 2024
Module time:
	user time   =       2.50 seconds =       0.04 minutes
	system time =       0.07 seconds =       0.00 minutes
	total time  =          2 seconds =       0.03 minutes
Total time:
	user time   =      13.68 seconds =       0.23 minutes
	system time =       0.47 seconds =       0.01 minutes
	total time  =         14 seconds =       0.23 minutes
   => Loading Basis Set <=

    Name: (DEF2-TZVPPD AUX)
    Role: JKFIT
    Keyword: DF_BASIS_SCF
    atoms 1   entry O          line   318 file /Users/deprince/software/psi4/v1.9.1/psi4/install/share/psi4/basis/def2-universal-jkfit.gbs 
    atoms 2-3 entry H          line    18 file /Users/deprince/software/psi4/v1.9.1/psi4/install/share/psi4/basis/def2-universal-jkfit.gbs 

   => Loading Basis Set <=

    Name: (DEF2-TZVPPD AUX)
    Role: RIFIT
    Keyword: DF_BASIS_CC
    atoms 1   entry O          line   333 file /Users/deprince/software/psi4/v1.9.1/psi4/install/share/psi4/basis/def2-tzvppd-ri.gbs 
    atoms 2-3 entry H          line    22 file /Users/deprince/software/psi4/v1.9.1/psi4/install/share/psi4/basis/def2-tzvppd-ri.gbs 


Reading options from the HILBERT block
Calling plugin hilbert.so.


Plugins that use gradients: set Da, Db, and Lagrangian for gradient theory on the wavefunction. The old way of passing these will stop working as soon as 1.8.    Molecular point group: c1
    Full point group: C2v

    Geometry (in Angstrom), charge = 0, multiplicity = 1:

       Center              X                  Y                   Z               Mass       
    ------------   -----------------  -----------------  -----------------  -----------------
         O           -0.068516219320     0.000000000000     0.000000000000    15.994914619570
         H            0.543701060715     0.000000000000    -0.790689573744     1.007825032230
         H            0.543701060715     0.000000000000     0.790689573744     1.007825032230

  -AO BASIS SET INFORMATION:
    Name                   = DEF2-TZVPPD
    Blend                  = DEF2-TZVPPD
    Total number of shells = 28
    Number of primitives   = 41
    Number of AO           = 82
    Number of SO           = 74
    Maximum AM             = 3
    Spherical Harmonics    = TRUE

  -Contraction Scheme:
    Atom   Type   All Primitives // Shells:
   ------ ------ --------------------------
       1     O     12s 7p 3d 1f // 6s 4p 3d 1f 
       2     H     5s 3p 1d // 3s 3p 1d 
       3     H     5s 3p 1d // 3s 3p 1d 

  ==> AO Basis Functions <==

    [ DEF2-TZVPPD ]
    spherical
    ****
    O   1
    S   6 1.00
                     27032.38263100           0.00021726
                      4052.38713920           0.00168387
                       922.32722710           0.00873956
                       261.24070989           0.03523997
                        85.35464135           0.11153519
                        31.03503524           0.25588954
    S   2 1.00
                        12.26086073           0.39768731
                         4.99870760           0.24627849
    S   1 1.00
                         1.17031082           1.00000000
    S   1 1.00
                         0.46474741           1.00000000
    S   1 1.00
                         0.18504536           1.00000000
    S   1 1.00
                         0.07028803           1.00000000
    P   4 1.00
                        63.27495480           0.00606851
                        14.62704938           0.04191258
                         4.45012235           0.16153841
                         1.52757996           0.35706951
    P   1 1.00
                         0.52935118           1.00000000
    P   1 1.00
                         0.17478421           1.00000000
    P   1 1.00
                         0.05111275           1.00000000
    D   1 1.00
                         2.31400000           1.00000000
    D   1 1.00
                         0.64500000           1.00000000
    D   1 1.00
                         0.14696477           1.00000000
    F   1 1.00
                         1.42800000           1.00000000
    ****
    H   2
    S   3 1.00
                        34.06134100           0.00602520
                         5.12357460           0.04502109
                         1.16466260           0.20189726
    S   1 1.00
                         0.32723041           1.00000000
    S   1 1.00
                         0.10307241           1.00000000
    P   1 1.00
                         1.40700000           1.00000000
    P   1 1.00
                         0.38800000           1.00000000
    P   1 1.00
                         0.09577413           1.00000000
    D   1 1.00
                         1.05700000           1.00000000
    ****
    H   3
    S   3 1.00
                        34.06134100           0.00602520
                         5.12357460           0.04502109
                         1.16466260           0.20189726
    S   1 1.00
                         0.32723041           1.00000000
    S   1 1.00
                         0.10307241           1.00000000
    P   1 1.00
                         1.40700000           1.00000000
    P   1 1.00
                         0.38800000           1.00000000
    P   1 1.00
                         0.09577413           1.00000000
    D   1 1.00
                         1.05700000           1.00000000
    ****



        *******************************************************
        *                                                     *
        *                                                     *
        *    Polaritonic UKS                                  *
        *                                                     *
        *                                                     *
        *******************************************************
    Molecular point group: c1
    Full point group: C2v

    Geometry (in Angstrom), charge = 0, multiplicity = 1:

       Center              X                  Y                   Z               Mass       
    ------------   -----------------  -----------------  -----------------  -----------------
         O           -0.068516219320     0.000000000000     0.000000000000    15.994914619570
         H            0.543701060715     0.000000000000    -0.790689573744     1.007825032230
         H            0.543701060715     0.000000000000     0.790689573744     1.007825032230

  -AO BASIS SET INFORMATION:
    Name                   = DEF2-TZVPPD
    Blend                  = DEF2-TZVPPD
    Total number of shells = 28
    Number of primitives   = 41
    Number of AO           = 82
    Number of SO           = 74
    Maximum AM             = 3
    Spherical Harmonics    = TRUE

  -Contraction Scheme:
    Atom   Type   All Primitives // Shells:
   ------ ------ --------------------------
       1     O     12s 7p 3d 1f // 6s 4p 3d 1f 
       2     H     5s 3p 1d // 3s 3p 1d 
       3     H     5s 3p 1d // 3s 3p 1d 

  ==> AO Basis Functions <==

    [ DEF2-TZVPPD ]
    spherical
    ****
    O   1
    S   6 1.00
                     27032.38263100           0.00021726
                      4052.38713920           0.00168387
                       922.32722710           0.00873956
                       261.24070989           0.03523997
                        85.35464135           0.11153519
                        31.03503524           0.25588954
    S   2 1.00
                        12.26086073           0.39768731
                         4.99870760           0.24627849
    S   1 1.00
                         1.17031082           1.00000000
    S   1 1.00
                         0.46474741           1.00000000
    S   1 1.00
                         0.18504536           1.00000000
    S   1 1.00
                         0.07028803           1.00000000
    P   4 1.00
                        63.27495480           0.00606851
                        14.62704938           0.04191258
                         4.45012235           0.16153841
                         1.52757996           0.35706951
    P   1 1.00
                         0.52935118           1.00000000
    P   1 1.00
                         0.17478421           1.00000000
    P   1 1.00
                         0.05111275           1.00000000
    D   1 1.00
                         2.31400000           1.00000000
    D   1 1.00
                         0.64500000           1.00000000
    D   1 1.00
                         0.14696477           1.00000000
    F   1 1.00
                         1.42800000           1.00000000
    ****
    H   2
    S   3 1.00
                        34.06134100           0.00602520
                         5.12357460           0.04502109
                         1.16466260           0.20189726
    S   1 1.00
                         0.32723041           1.00000000
    S   1 1.00
                         0.10307241           1.00000000
    P   1 1.00
                         1.40700000           1.00000000
    P   1 1.00
                         0.38800000           1.00000000
    P   1 1.00
                         0.09577413           1.00000000
    D   1 1.00
                         1.05700000           1.00000000
    ****
    H   3
    S   3 1.00
                        34.06134100           0.00602520
                         5.12357460           0.04502109
                         1.16466260           0.20189726
    S   1 1.00
                         0.32723041           1.00000000
    S   1 1.00
                         0.10307241           1.00000000
    P   1 1.00
                         1.40700000           1.00000000
    P   1 1.00
                         0.38800000           1.00000000
    P   1 1.00
                         0.09577413           1.00000000
    D   1 1.00
                         1.05700000           1.00000000
    ****

  ==> DFT Potential <==

   => LibXC <=

    Version 6.2.2
    S. Lehtola, C. Steigemann, M. J.T. Oliveira, and M. A.L. Marques.,  SoftwareX 7, 1–5 (2018) (10.1016/j.softx.2017.11.002)

   => Composite Functional: TPSSH <= 

    TPSSh Hyb-GGA Exchange-Correlation Functional

    V. N. Staroverov, G. E. Scuseria, J. Tao, and J. P. Perdew.,  J. Chem. Phys. 119, 12129 (2003) (10.1063/1.1626543)

    Deriv               =              1
    GGA                 =           TRUE
    Meta                =           TRUE

    Exchange Hybrid     =           TRUE
    MP2 Hybrid          =          FALSE

   => Exchange Functionals <=

    0.9000   Tao, Perdew, Staroverov & Scuseria

   => Exact (HF) Exchange <=

    0.1000               HF 

   => Correlation Functionals <=

    1.0000   Tao, Perdew, Staroverov & Scuseria

   => LibXC Density Thresholds  <==

    XC_HYB_MGGA_XC_TPSSH:  1.00E-15 

   => Molecular Quadrature <=

    Radial Scheme          =       TREUTLER
    Pruning Scheme         =           NONE
    Nuclear Scheme         =       TREUTLER

    Blocking Scheme        =         OCTREE
    BS radius alpha        =              1
    Pruning alpha          =              1
    Radial Points          =             75
    Spherical Points       =            302
    Total Points           =          66724
    Total Blocks           =            554
    Max Points             =            255
    Max Functions          =             74
    Weights Tolerance      =       1.00E-15


    No. basis functions:               74
    No. auxiliary basis functions:    113
    No. alpha electrons:                5
    No. beta electrons:                 5
    e_convergence:              1.000e-10
    d_convergence:              1.000e-10
    maxiter:                          500



    Guess energy:      -73.582850070054

    ==>  Begin SCF Iterations <==

     Iter               energy                   dE          RMS |[F,P]| 
        0     -76.453426515179      -2.870576445124       0.000059461228
        1     -76.453443041583      -0.000016526404       0.000071034787
        2     -76.453421584425       0.000021457158       0.000129543631
        3     -76.453452987813      -0.000031403388       0.000001722402
        4     -76.453452994105      -0.000000006292       0.000000140690
        5     -76.453452994146      -0.000000000041       0.000000024069
        6     -76.453452994147      -0.000000000001       0.000000001158
        7     -76.453452994147       0.000000000000       0.000000000217
        8     -76.453452994147      -0.000000000000       0.000000000005

    SCF iterations converged!


    ==> dipole self-energy: 1/2 lambda^2 ( <mu_e^2> - <mu_e>^2 ) <==

    one-electron part;        0.008573777086
    two-electron part:       -0.002911692830
    total:                    0.005662084256


    ==> dipole variance: ( <mu_e^2> - <mu_e>^2 ) <== 

    one electron (xx):       5.822321531222
    one electron (xy):       0.000000000000
    one electron (xz):       0.000000000000
    one electron (yy):       7.705328020599
    one electron (yz):       0.000000000000
    one electron (zz):       6.859021669009

    two electron (xx):      -1.787601320293
    two electron (xy):      -0.000000000000
    two electron (xz):       0.000000000000
    two electron (yy):      -2.834977655643
    two electron (yz):      -0.000000000000
    two electron (zz):      -2.329354264389

    total (xx):              4.034720210929
    total (xy):              0.000000000000
    total (xz):              0.000000000000
    total (yy):              4.870350364956
    total (yz):              0.000000000000
    total (zz):              4.529667404620

    * Polaritonic UKS total energy:     -76.453452994147

 #  #
 Irrep: 1
      1:  -19.062235784453772
      2:   -0.977230298177706
      3:   -0.498514578404701
      4:   -0.368598456923037
      5:   -0.290846396286874
      6:   -0.003200172002645
      7:    0.054907302051194
      8:    0.087937351428550
      9:    0.104711555739877
     10:    0.140349757802623
     11:    0.170370062390266
     12:    0.198143452583095
     13:    0.207276534584180
     14:    0.229357385816539
     15:    0.269656067076676
     16:    0.279415337081530
     17:    0.320418956747559
     18:    0.405845483402835
     19:    0.425197474396673
     20:    0.457943449859418
     21:    0.505466716028476
     22:    0.512382726109687
     23:    0.611917485377493
     24:    0.673010263284842
     25:    0.682674572996316
     26:    0.683707741705194
     27:    0.868319911270153
     28:    0.945413797708605
     29:    0.951848224678755
     30:    1.012200002249763
     31:    1.078297885706053
     32:    1.144174776506661
     33:    1.256716955650940
     34:    1.315534191071161
     35:    1.817333384010976
     36:    1.874597790329991
     37:    1.939999225321489
     38:    2.059508880106603
     39:    2.199182938461613
     40:    2.536738747493519
     41:    2.713356985231378
     42:    2.734097372378957
     43:    2.985822631621188
     44:    3.120616137692488
     45:    3.199702289554665
     46:    3.279340231080697
     47:    3.326954501288561
     48:    3.339406411595919
     49:    3.364722681993311
     50:    3.608532336050014
     51:    3.808315874804356
     52:    3.862452667872978
     53:    3.946860800687805
     54:    3.991448725689458
     55:    4.082928806628749
     56:    4.121395969177645
     57:    4.192657341121214
     58:    4.628202268868807
     59:    4.629660744484616
     60:    4.902775482192291
     61:    5.092947297753774
     62:    5.578909384461570
     63:    6.078355822482471
     64:    6.352138860535081
     65:    6.410922218500823
     66:    6.541606282707505
     67:    6.588155272567014
     68:    6.682404633099609
     69:    6.801213525049469
     70:    6.916587989521561
     71:    7.385370993887789
     72:    7.489045378871113
     73:    7.749150039582285
     74:   43.812339018764582


 #  #
 Irrep: 1
      1:  -19.062235784453794
      2:   -0.977230298177549
      3:   -0.498514578404635
      4:   -0.368598456923043
      5:   -0.290846396286852
      6:   -0.003200172002672
      7:    0.054907302051248
      8:    0.087937351428554
      9:    0.104711555739911
     10:    0.140349757802707
     11:    0.170370062390630
     12:    0.198143452583103
     13:    0.207276534584255
     14:    0.229357385816568
     15:    0.269656067077237
     16:    0.279415337082062
     17:    0.320418956748210
     18:    0.405845483403621
     19:    0.425197474396886
     20:    0.457943449859407
     21:    0.505466716028745
     22:    0.512382726109698
     23:    0.611917485376989
     24:    0.673010263285083
     25:    0.682674572996312
     26:    0.683707741705263
     27:    0.868319911270192
     28:    0.945413797708565
     29:    0.951848224683687
     30:    1.012200002249774
     31:    1.078297885706378
     32:    1.144174776507014
     33:    1.256716955650587
     34:    1.315534191073779
     35:    1.817333384010991
     36:    1.874597790330025
     37:    1.939999225321683
     38:    2.059508880109987
     39:    2.199182938460126
     40:    2.536738747494752
     41:    2.713356985231015
     42:    2.734097372378936
     43:    2.985822631625667
     44:    3.120616137692490
     45:    3.199702289554766
     46:    3.279340231080952
     47:    3.326954501289567
     48:    3.339406411595908
     49:    3.364722681993314
     50:    3.608532336050047
     51:    3.808315874804367
     52:    3.862452667872998
     53:    3.946860800687890
     54:    3.991448725689418
     55:    4.082928806628709
     56:    4.121395969178359
     57:    4.192657341121354
     58:    4.628202268869056
     59:    4.629660744484224
     60:    4.902775482191419
     61:    5.092947297755614
     62:    5.578909384461563
     63:    6.078355822482528
     64:    6.352138860535065
     65:    6.410922218500778
     66:    6.541606282707557
     67:    6.588155272566985
     68:    6.682404633100007
     69:    6.801213525049431
     70:    6.916587989521771
     71:    7.385370993887847
     72:    7.489045378870673
     73:    7.749150039582629
     74:   43.812339018764568

    QED-DFT total energy (yzx)............................................................PASSED

    Psi4 stopped on: Monday, 01 July 2024 01:31PM
    Psi4 wall time for execution: 0:00:17.10

*** Psi4 exiting successfully. Buy a developer a beer!
