
    -----------------------------------------------------------------------
          Psi4: An Open-Source Ab Initio Electronic Structure Package
                               Psi4 1.10 

                         Git: Rev {HEAD} f2492db dirty


    D. G. A. Smith, L. A. Burns, A. C. Simmonett, R. M. Parrish,
    M. C. Schieber, R. Galvelis, P. Kraus, H. Kruse, R. Di Remigio,
    A. Alenaizan, A. M. James, S. Lehtola, J. P. Misiewicz, M. Scheurer,
    R. A. Shaw, J. B. Schriber, Y. Xie, Z. L. Glick, D. A. Sirianni,
    J. S. O'Brien, J. M. Waldrop, A. Kumar, E. G. Hohenstein,
    B. P. Pritchard, B. R. Brooks, H. F. Schaefer III, A. Yu. Sokolov,
    K. Patkowski, A. E. DePrince III, U. Bozkaya, R. A. King,
    F. A. Evangelista, J. M. Turney, T. D. Crawford, C. D. Sherrill,
    J. Chem. Phys. 152(18) 184108 (2020). https://doi.org/10.1063/5.0006002

                            Additional Code Authors
    E. T. Seidl, C. L. Janssen, E. F. Valeev, M. L. Leininger,
    J. F. Gonthier, R. M. Richard, H. R. McAlexander, M. Saitow, X. Wang,
    P. Verma, M. H. Lechner, A. Jiang, S. Behnle, A. G. Heide,
    M. F. Herbst, D. L. Poole, T. Győri, E. C. Mitchell, J. P. Pederson,
    and A. M. Wallace

             Previous Authors, Complete List of Code Contributors,
                       and Citations for Specific Modules
    https://github.com/psi4/psi4/blob/master/codemeta.json
    https://github.com/psi4/psi4/graphs/contributors
    https://psicode.org/psi4manual/master/introduction.html#citing-psifour

    -----------------------------------------------------------------------


    Psi4 started on: Saturday, 20 June 2026 03:54PM

    Process ID: 36694
    Host:       Alberts-MacBook-Pro.local
    PSIDATADIR: /Users/deprince/software/psi4/v1.10/psi4/install/share/psi4
    Memory:     500.0 MiB
    Threads:    1
    Addons:     a̶d̶c̶c̶, a̶m̶b̶i̶t̶, b̶s̶e̶, c̶c̶t̶3̶, c̶f̶o̶u̶r̶, c̶h̶e̶m̶p̶s̶2̶, c̶p̶p̶e̶, d̶d̶x̶,
                d̶f̶t̶d̶3̶, d̶f̶t̶d̶4̶, d̶k̶h̶, e̶c̶p̶i̶n̶t̶, e̶i̶n̶s̶u̶m̶s̶, f̶o̶r̶t̶e̶,
                g̶a̶u̶x̶c̶, g̶c̶p̶, g̶d̶m̶a̶, g̶e̶o̶m̶e̶t̶r̶i̶c̶, g̶p̶u̶_̶d̶f̶c̶c̶,
                i̶n̶t̶e̶g̶r̶a̶t̶o̶r̶x̶x̶, i̶p̶i̶, l̶i̶b̶e̶f̶p̶, m̶d̶i̶, m̶p̶2̶d̶, m̶r̶c̶c̶,
                o̶o̶o̶, o̶p̶e̶n̶f̶e̶r̶m̶i̶o̶n̶p̶s̶i̶4̶, p̶c̶m̶s̶o̶l̶v̶e̶r̶,
                p̶s̶i̶4̶f̶o̶c̶k̶c̶i̶, p̶s̶i̶x̶a̶s̶, r̶e̶s̶p̶, s̶i̶m̶i̶n̶t̶, s̶n̶s̶m̶p̶2̶,
                v̶2̶r̶d̶m̶_̶c̶a̶s̶s̶c̶f̶

  ==> Input File <==

--------------------------------------------------------------------------
sys.path.insert(0, '../../../')
import math
import hilbert


molecule mol1 {
0 1
         O            0.000000000000     0.000000000000    -0.068516219320
         H            0.000000000000    -0.790689573744     0.543701060715
         H            0.000000000000     0.790689573744     0.543701060715
no_reorient
nocom
symmetry c1
}
molecule mol2 {
         O             0.000000000000    -0.068516219320    0.000000000000
         H            -0.790689573744     0.543701060715    0.000000000000
         H             0.790689573744     0.543701060715    0.000000000000
no_reorient
nocom
symmetry c1
}
molecule mol3 {
         O         -0.068516219320      0.000000000000     0.000000000000
         H          0.543701060715      0.000000000000    -0.790689573744
         H          0.543701060715      0.000000000000     0.790689573744
no_reorient
nocom
symmetry c1
}

activate(mol1)
set {
  basis sto-3g
  
  scf_type cd 
  cholesky_tolerance 1e-12
  
  e_convergence 1e-10
  r_convergence 1e-10
  d_convergence 1e-10
}
 
lam = 0.05 # coupling factor (this value is for a 0.74 nm³ cavity)
w = 0.1 # frequency of the cavity mode
g = (lam / math.sqrt(2.0 * w)) # coupling strength
set hilbert {
  cavity_frequency         $w
  cavity_coupling_strength [0.0, 0.0, $g]
  
  QED_USE_RELAXED_ORBITALS  true # do relax the SCF orbitals within the cavity
  
  MAD_NUM_THREADS              1 # the number of MADNESS threads to use with mpirun 
                                 # Note: if not using mpi or using eom, set this to 1 for best performanc
  TILE_SIZE                   -1 # the spacing between tiles in a tiledarray (-1 places all data on a single tile)
                                 # Note: if not using mpi or using eom, set this to -1 for best performance
}

# memory for Psi4 (note: this is for the integrals, not the CC calculation which does not restrict memory usage)
memory 1000 MB

en1, wfn = energy('qed-ccsd', return_wfn=True)      # QED-CCSD-21 w/o TiledArray
en2, wfn = energy('qed-ccsd-21', return_wfn=True)   # QED-CCSD-21 w/ TiledArray
compare_values(en1, en2, 8, "QED-CCSD-21 (TA) total energy (z-pol)") # TEST

activate(mol2)
set basis sto-3g
set hilbert {
    cavity_coupling_strength [0.0, $g, 0.0]
}
en1, wfn = energy('qed-ccsd', return_wfn=True)      # QED-CCSD-21 w/o TiledArray
en2, wfn = energy('qed-ccsd-21', return_wfn=True)   # QED-CCSD-21 w/ TiledArray
compare_values(en1, en2, 8, "QED-CCSD-21 (TA) total energy (y-pol)") # TEST

activate(mol3)
set basis sto-3g
set hilbert {
    cavity_coupling_strength [$g, 0.0, 0.0]
}
en1, wfn = energy('qed-ccsd', return_wfn=True)      # QED-CCSD-21 w/o TiledArray
en2, wfn = energy('qed-ccsd-21', return_wfn=True)   # QED-CCSD-21 w/ TiledArray
compare_values(en1, en2, 8, "QED-CCSD-21 (TA) total energy (x-pol)") # TEST

--------------------------------------------------------------------------

  Memory set to 953.674 MiB by Python driver.

Scratch directory: /Users/deprince/psi4_scratch/
   => Libint2 <=

    Primary   basis highest AM E, G, H:  5, 4, 3
    Auxiliary basis highest AM E, G, H:  6, 5, 4
    Onebody   basis highest AM E, G, H:  6, 5, 4
    Solid Harmonics ordering:            Gaussian

*** tstart() called on Alberts-MacBook-Pro.local
*** at Sat Jun 20 15:54:38 2026

   => Loading Basis Set <=

    Name: STO-3G
    Role: ORBITAL
    Keyword: BASIS
    atoms 1   entry O          line    81 file /Users/deprince/software/psi4/v1.10/psi4/install/share/psi4/basis/sto-3g.gbs 
    atoms 2-3 entry H          line    19 file /Users/deprince/software/psi4/v1.10/psi4/install/share/psi4/basis/sto-3g.gbs 


         ---------------------------------------------------------
                                   SCF
               by Justin Turney, Rob Parrish, Andy Simmonett
                          and Daniel G. A. Smith
                              RHF Reference
                        1 Threads,    953 MiB Core
         ---------------------------------------------------------

  ==> Geometry <==

    Molecular point group: c1
    Full point group: C2v

    Geometry (in Angstrom), charge = 0, multiplicity = 1:

       Center              X                  Y                   Z               Mass       
    ------------   -----------------  -----------------  -----------------  -----------------
         O            0.000000000000     0.000000000000    -0.068516219320    15.994914619570
         H            0.000000000000    -0.790689573744     0.543701060715     1.007825032230
         H            0.000000000000     0.790689573744     0.543701060715     1.007825032230

  Running in c1 symmetry.

  Rotational constants: A =     25.12555  B =     13.37733  C =      8.72955 [cm^-1]
  Rotational constants: A = 753245.07149  B = 401042.16706  C = 261705.25473 [MHz]
  Nuclear repulsion =    8.801465564563406

  Charge       = 0
  Multiplicity = 1
  Electrons    = 10
  Nalpha       = 5
  Nbeta        = 5

  ==> Algorithm <==

  SCF Algorithm Type is CD.
  DIIS enabled.
  MOM disabled.
  Fractional occupation disabled.
  Guess Type is SAD.
  Energy threshold   = 1.00e-10
  Density threshold  = 1.00e-10
  Integral threshold = 1.00e-12

  ==> Primary Basis <==

  Basis Set: STO-3G
    Blend: STO-3G
    Number of shells: 5
    Number of basis functions: 7
    Number of Cartesian functions: 7
    Spherical Harmonics?: true
    Max angular momentum: 1

  ==> Integral Setup <==

  ==> CDJK: Cholesky-decomposed J/K Matrices <==

    J tasked:                     Yes
    K tasked:                     Yes
    wK tasked:                     No
    OpenMP threads:                 1
    Integrals threads:              1
    Memory [MiB]:                 715
    Algorithm:                   Core
    Integral Cache:              SAVE
    Schwarz Cutoff:             1E-12
    Cholesky tolerance:      1.00E-12
    No. Cholesky vectors:          28

  Minimum eigenvalue in the overlap matrix is 3.7028400386E-01.
  Reciprocal condition number of the overlap matrix is 1.9726983142E-01.
    Using symmetric orthogonalization.

  ==> Pre-Iterations <==

  SCF Guess: Superposition of Atomic Densities via on-the-fly atomic UHF (no occupation information).

   -------------------------
    Irrep   Nso     Nmo    
   -------------------------
     A          7       7 
   -------------------------
    Total       7       7
   -------------------------

  ==> Iterations <==

                        Total Energy        Delta E     RMS |[F,P]|

   @RHF iter SAD:   -74.30946884944849   -7.43095e+01   0.00000e+00 
   @RHF iter   1:   -74.92881817101731   -6.19349e-01   3.43856e-02 DIIS/ADIIS
   @RHF iter   2:   -74.96348479981398   -3.46666e-02   5.18640e-03 DIIS/ADIIS
   @RHF iter   3:   -74.96460696614773   -1.12217e-03   1.26126e-03 DIIS/ADIIS
   @RHF iter   4:   -74.96466238340686   -5.54173e-05   4.90456e-05 DIIS
   @RHF iter   5:   -74.96466251582414   -1.32417e-07   1.69025e-05 DIIS
   @RHF iter   6:   -74.96466253910313   -2.32790e-08   2.14671e-07 DIIS
   @RHF iter   7:   -74.96466253910498   -1.84741e-12   9.12022e-10 DIIS
   @RHF iter   8:   -74.96466253910499   -1.42109e-14   2.60215e-12 DIIS
  Energy and wave function converged.


  ==> Post-Iterations <==

    Orbital Energies [Eh]
    ---------------------

    Doubly Occupied:                                                      

       1A    -20.247270     2A     -1.247775     3A     -0.595851  
       4A     -0.447884     5A     -0.388956  

    Virtual:                                                              

       6A      0.564152     7A      0.693007  

    Final Occupation by Irrep:
              A 
    DOCC [     5 ]
    NA   [     5 ]
    NB   [     5 ]

  @RHF Final Energy:   -74.96466253910499

   => Energetics <=

    Nuclear Repulsion Energy =              8.8014655645634061
    One-Electron Energy =                -121.6767825481757370
    Two-Electron Energy =                  37.9106544445073439
    Total Energy =                        -74.9646625391049923

Computation Completed


Properties will be evaluated at   0.000000,   0.000000,   0.000000 [a0]

Properties computed using the SCF density matrix


 Multipole Moments:

 ------------------------------------------------------------------------------------
     Multipole            Electronic (a.u.)      Nuclear  (a.u.)        Total (a.u.)
 ------------------------------------------------------------------------------------

 L = 1.  Multiply by 2.5417464519 to convert [e a0] to [Debye]
 Dipole X            :          0.0000000            0.0000000            0.0000000
 Dipole Y            :         -0.0000000            0.0000000           -0.0000000
 Dipole Z            :         -0.3624478            1.0190771            0.6566293
 Magnitude           :                                                    0.6566293

 ------------------------------------------------------------------------------------

*** tstop() called on Alberts-MacBook-Pro.local at Sat Jun 20 15:54:39 2026
Module time:
	user time   =       0.29 seconds =       0.00 minutes
	system time =       0.04 seconds =       0.00 minutes
	total time  =          1 seconds =       0.02 minutes
Total time:
	user time   =       0.29 seconds =       0.00 minutes
	system time =       0.04 seconds =       0.00 minutes
	total time  =          1 seconds =       0.02 minutes
   => Loading Basis Set <=

    Name: (STO-3G AUX)
    Role: JKFIT
    Keyword: DF_BASIS_SCF
    atoms 1   entry O          line   318 file /Users/deprince/software/psi4/v1.10/psi4/install/share/psi4/basis/def2-universal-jkfit.gbs 
    atoms 2-3 entry H          line    18 file /Users/deprince/software/psi4/v1.10/psi4/install/share/psi4/basis/def2-universal-jkfit.gbs 

   => Loading Basis Set <=

    Name: (STO-3G AUX)
    Role: RIFIT
    Keyword: DF_BASIS_CC
    atoms 1   entry O          line   233 file /Users/deprince/software/psi4/v1.10/psi4/install/share/psi4/basis/def2-svp-ri.gbs 
    atoms 2-3 entry H          line    22 file /Users/deprince/software/psi4/v1.10/psi4/install/share/psi4/basis/def2-svp-ri.gbs 


Reading options from the HILBERT block
Calling plugin hilbert.so.


Plugins that use gradients: set Da, Db, and Lagrangian for gradient theory on the wavefunction. The old way of passing these will stop working as soon as 1.8.    Molecular point group: c1
    Full point group: C2v

    Geometry (in Angstrom), charge = 0, multiplicity = 1:

       Center              X                  Y                   Z               Mass       
    ------------   -----------------  -----------------  -----------------  -----------------
         O            0.000000000000     0.000000000000    -0.068516219320    15.994914619570
         H            0.000000000000    -0.790689573744     0.543701060715     1.007825032230
         H            0.000000000000     0.790689573744     0.543701060715     1.007825032230

  -AO BASIS SET INFORMATION:
    Name                   = STO-3G
    Blend                  = STO-3G
    Total number of shells = 5
    Number of primitives   = 15
    Number of AO           = 7
    Number of SO           = 7
    Maximum AM             = 1
    Spherical Harmonics    = TRUE

  -Contraction Scheme:
    Atom   Type   All Primitives // Shells:
   ------ ------ --------------------------
       1     O     6s 3p // 2s 1p 
       2     H     3s // 1s 
       3     H     3s // 1s 

  ==> AO Basis Functions <==

    [ STO-3G ]
    spherical
    ****
    O   1
    S   3 1.00
                       130.70932000           0.15432897
                        23.80886100           0.53532814
                         6.44360830           0.44463454
    S   3 1.00
                         5.03315130          -0.09996723
                         1.16959610           0.39951283
                         0.38038900           0.70011547
    P   3 1.00
                         5.03315130           0.15591627
                         1.16959610           0.60768372
                         0.38038900           0.39195739
    ****
    H   2
    S   3 1.00
                         3.42525091           0.15432897
                         0.62391373           0.53532814
                         0.16885540           0.44463454
    ****
    H   3
    S   3 1.00
                         3.42525091           0.15432897
                         0.62391373           0.53532814
                         0.16885540           0.44463454
    ****



        *******************************************************
        *                                                     *
        *                                                     *
        *    Polaritonic RHF                                  *
        *                                                     *
        *                                                     *
        *******************************************************
    Molecular point group: c1
    Full point group: C2v

    Geometry (in Angstrom), charge = 0, multiplicity = 1:

       Center              X                  Y                   Z               Mass       
    ------------   -----------------  -----------------  -----------------  -----------------
         O            0.000000000000     0.000000000000    -0.068516219320    15.994914619570
         H            0.000000000000    -0.790689573744     0.543701060715     1.007825032230
         H            0.000000000000     0.790689573744     0.543701060715     1.007825032230

  -AO BASIS SET INFORMATION:
    Name                   = STO-3G
    Blend                  = STO-3G
    Total number of shells = 5
    Number of primitives   = 15
    Number of AO           = 7
    Number of SO           = 7
    Maximum AM             = 1
    Spherical Harmonics    = TRUE

  -Contraction Scheme:
    Atom   Type   All Primitives // Shells:
   ------ ------ --------------------------
       1     O     6s 3p // 2s 1p 
       2     H     3s // 1s 
       3     H     3s // 1s 

  ==> AO Basis Functions <==

    [ STO-3G ]
    spherical
    ****
    O   1
    S   3 1.00
                       130.70932000           0.15432897
                        23.80886100           0.53532814
                         6.44360830           0.44463454
    S   3 1.00
                         5.03315130          -0.09996723
                         1.16959610           0.39951283
                         0.38038900           0.70011547
    P   3 1.00
                         5.03315130           0.15591627
                         1.16959610           0.60768372
                         0.38038900           0.39195739
    ****
    H   2
    S   3 1.00
                         3.42525091           0.15432897
                         0.62391373           0.53532814
                         0.16885540           0.44463454
    ****
    H   3
    S   3 1.00
                         3.42525091           0.15432897
                         0.62391373           0.53532814
                         0.16885540           0.44463454
    ****


    No. basis functions:                7
    cholesky_tolerance:             1.000000e-12
    No. electrons:                     10
    e_convergence:              1.000e-10
    d_convergence:              1.000e-10
    maxiter:                           50



    Guess energy:      -74.964498328625

    ==>  Begin SCF Iterations <==

     Iter               energy                   dE          RMS |[F,P]| 
        0     -74.960093626807       0.004404701819       0.000149269121
        1     -74.960093981817      -0.000000355010       0.000050659259
        2     -74.960094635482      -0.000000653665       0.000019307678
        3     -74.960094810600      -0.000000175118       0.000003400521
        4     -74.960094961659      -0.000000151060       0.000000572020
        5     -74.960094985721      -0.000000024061       0.000000002510
        6     -74.960094985282       0.000000000438       0.000000001208
        7     -74.960094985277       0.000000000005       0.000000002008
        8     -74.960094985282      -0.000000000005       0.000000000389
        9     -74.960094985281       0.000000000001       0.000000000031

    SCF iterations converged!


    ==> dipole self-energy: 1/2 lambda^2 ( <mu_e^2> - <mu_e>^2 ) <==

    one-electron part;        0.007653679673
    two-electron part:       -0.003087481668
    total:                    0.004566198004


    ==> dipole integrals <== 

    <mu_x> =       0.000000000000
    <mu_y> =      -0.000000000000
    <mu_z> =      -0.360411869237


    ==> dipole variance: ( <mu_e^2> - <mu_e>^2 ) <== 

    one electron (xx):       4.557760744643
    one electron (xy):      -0.000000000000
    one electron (xz):       0.000000000000
    one electron (yy):       7.687949703493
    one electron (yz):       0.000000000000
    one electron (zz):       6.122943738055

    two electron (xx):      -1.666121731559
    two electron (xy):       0.000000000000
    two electron (xz):      -0.000000000000
    two electron (yy):      -3.357994331015
    two electron (yz):      -0.000000000000
    two electron (zz):      -2.469985334685

    total (xx):              2.891639013085
    total (xy):             -0.000000000000
    total (xz):              0.000000000000
    total (yy):              4.329955372479
    total (yz):              0.000000000000
    total (zz):              3.652958403370

    * Polaritonic RHF total energy:     -74.960094985281

 #  #
 Irrep: 1
      1:  -20.246554088301657
      2:   -1.247964265309264
      3:   -0.595042815266335
      4:   -0.447450508203924
      5:   -0.388198232411007
      6:    0.565555506358413
      7:    0.693756606194756

    Molecular point group: c1
    Full point group: C2v

    Geometry (in Angstrom), charge = 0, multiplicity = 1:

       Center              X                  Y                   Z               Mass       
    ------------   -----------------  -----------------  -----------------  -----------------
         O            0.000000000000     0.000000000000    -0.068516219320    15.994914619570
         H            0.000000000000    -0.790689573744     0.543701060715     1.007825032230
         H            0.000000000000     0.790689573744     0.543701060715     1.007825032230

  -AO BASIS SET INFORMATION:
    Name                   = STO-3G
    Blend                  = STO-3G
    Total number of shells = 5
    Number of primitives   = 15
    Number of AO           = 7
    Number of SO           = 7
    Maximum AM             = 1
    Spherical Harmonics    = TRUE

  -Contraction Scheme:
    Atom   Type   All Primitives // Shells:
   ------ ------ --------------------------
       1     O     6s 3p // 2s 1p 
       2     H     3s // 1s 
       3     H     3s // 1s 

  ==> AO Basis Functions <==

    [ STO-3G ]
    spherical
    ****
    O   1
    S   3 1.00
                       130.70932000           0.15432897
                        23.80886100           0.53532814
                         6.44360830           0.44463454
    S   3 1.00
                         5.03315130          -0.09996723
                         1.16959610           0.39951283
                         0.38038900           0.70011547
    P   3 1.00
                         5.03315130           0.15591627
                         1.16959610           0.60768372
                         0.38038900           0.39195739
    ****
    H   2
    S   3 1.00
                         3.42525091           0.15432897
                         0.62391373           0.53532814
                         0.16885540           0.44463454
    ****
    H   3
    S   3 1.00
                         3.42525091           0.15432897
                         0.62391373           0.53532814
                         0.16885540           0.44463454
    ****



        *******************************************************
        *                                                     *
        *                                                     *
        *    UCCSD                                            *
        *                                                     *
        *                                                     *
        *******************************************************

    ==> Hamiltonian type <==

        molecular


    Required memory:               0.4 mb


    No. basis functions:                7
    No. auxiliary basis functions:     28
    No. alpha electrons:                5
    No. beta electrons:                 5
    e_convergence:              1.000e-10
    r_convergence:              1.000e-10
    maxiter:                           50



    ==>  Begin CCSD Iterations <==

     Iter               energy                   dE                 |dT| 
        0      -0.039647452787      -0.039647452787       0.248949985052
        1      -0.050183162532      -0.010535709745       0.073952357188
        2      -0.055304919267      -0.005121756735       0.028260011324
        3      -0.055558900596      -0.000253981329       0.004521840083
        4      -0.055587703840      -0.000028803244       0.001155241687
        5      -0.055587869628      -0.000000165788       0.000285876975
        6      -0.055588670896      -0.000000801268       0.000023354832
        7      -0.055588544003       0.000000126893       0.000004835694
        8      -0.055588521491       0.000000022512       0.000000954051
        9      -0.055588561761      -0.000000040270       0.000001167311
       10      -0.055588564183      -0.000000002422       0.000000348984
       11      -0.055588562407       0.000000001776       0.000000056948
       12      -0.055588562197       0.000000000210       0.000000013899
       13      -0.055588562426      -0.000000000229       0.000000002101
       14      -0.055588562441      -0.000000000014       0.000000000435
       15      -0.055588562440       0.000000000001       0.000000000121
       16      -0.055588562440       0.000000000000       0.000000000010

    CCSD iterations converged!

    * Polaritonic UCCSD total energy:     -75.015683547720

Scratch directory: /Users/deprince/psi4_scratch/
   => Libint2 <=

    Primary   basis highest AM E, G, H:  5, 4, 3
    Auxiliary basis highest AM E, G, H:  6, 5, 4
    Onebody   basis highest AM E, G, H:  6, 5, 4
    Solid Harmonics ordering:            Gaussian

*** tstart() called on Alberts-MacBook-Pro.local
*** at Sat Jun 20 15:54:39 2026

   => Loading Basis Set <=

    Name: STO-3G
    Role: ORBITAL
    Keyword: BASIS
    atoms 1   entry O          line    81 file /Users/deprince/software/psi4/v1.10/psi4/install/share/psi4/basis/sto-3g.gbs 
    atoms 2-3 entry H          line    19 file /Users/deprince/software/psi4/v1.10/psi4/install/share/psi4/basis/sto-3g.gbs 


         ---------------------------------------------------------
                                   SCF
               by Justin Turney, Rob Parrish, Andy Simmonett
                          and Daniel G. A. Smith
                              RHF Reference
                        1 Threads,    953 MiB Core
         ---------------------------------------------------------

  ==> Geometry <==

    Molecular point group: c1
    Full point group: C2v

    Geometry (in Angstrom), charge = 0, multiplicity = 1:

       Center              X                  Y                   Z               Mass       
    ------------   -----------------  -----------------  -----------------  -----------------
         O            0.000000000000     0.000000000000    -0.068516219320    15.994914619570
         H            0.000000000000    -0.790689573744     0.543701060715     1.007825032230
         H            0.000000000000     0.790689573744     0.543701060715     1.007825032230

  Running in c1 symmetry.

  Rotational constants: A =     25.12555  B =     13.37733  C =      8.72955 [cm^-1]
  Rotational constants: A = 753245.07149  B = 401042.16706  C = 261705.25473 [MHz]
  Nuclear repulsion =    8.801465564563406

  Charge       = 0
  Multiplicity = 1
  Electrons    = 10
  Nalpha       = 5
  Nbeta        = 5

  ==> Algorithm <==

  SCF Algorithm Type is CD.
  DIIS enabled.
  MOM disabled.
  Fractional occupation disabled.
  Guess Type is SAD.
  Energy threshold   = 1.00e-10
  Density threshold  = 1.00e-10
  Integral threshold = 1.00e-12

  ==> Primary Basis <==

  Basis Set: STO-3G
    Blend: STO-3G
    Number of shells: 5
    Number of basis functions: 7
    Number of Cartesian functions: 7
    Spherical Harmonics?: true
    Max angular momentum: 1

  ==> Integral Setup <==

  ==> CDJK: Cholesky-decomposed J/K Matrices <==

    J tasked:                     Yes
    K tasked:                     Yes
    wK tasked:                     No
    OpenMP threads:                 1
    Integrals threads:              1
    Memory [MiB]:                 715
    Algorithm:                   Core
    Integral Cache:              SAVE
    Schwarz Cutoff:             1E-12
    Cholesky tolerance:      1.00E-12
    No. Cholesky vectors:          28

  Minimum eigenvalue in the overlap matrix is 3.7028400386E-01.
  Reciprocal condition number of the overlap matrix is 1.9726983142E-01.
    Using symmetric orthogonalization.

  ==> Pre-Iterations <==

  SCF Guess: Superposition of Atomic Densities via on-the-fly atomic UHF (no occupation information).

   -------------------------
    Irrep   Nso     Nmo    
   -------------------------
     A          7       7 
   -------------------------
    Total       7       7
   -------------------------

  ==> Iterations <==

                        Total Energy        Delta E     RMS |[F,P]|

   @RHF iter SAD:   -74.30946884944849   -7.43095e+01   0.00000e+00 
   @RHF iter   1:   -74.92881817101731   -6.19349e-01   3.43856e-02 DIIS/ADIIS
   @RHF iter   2:   -74.96348479981398   -3.46666e-02   5.18640e-03 DIIS/ADIIS
   @RHF iter   3:   -74.96460696614773   -1.12217e-03   1.26126e-03 DIIS/ADIIS
   @RHF iter   4:   -74.96466238340686   -5.54173e-05   4.90456e-05 DIIS
   @RHF iter   5:   -74.96466251582414   -1.32417e-07   1.69025e-05 DIIS
   @RHF iter   6:   -74.96466253910313   -2.32790e-08   2.14671e-07 DIIS
   @RHF iter   7:   -74.96466253910498   -1.84741e-12   9.12022e-10 DIIS
   @RHF iter   8:   -74.96466253910499   -1.42109e-14   2.60215e-12 DIIS
  Energy and wave function converged.


  ==> Post-Iterations <==

    Orbital Energies [Eh]
    ---------------------

    Doubly Occupied:                                                      

       1A    -20.247270     2A     -1.247775     3A     -0.595851  
       4A     -0.447884     5A     -0.388956  

    Virtual:                                                              

       6A      0.564152     7A      0.693007  

    Final Occupation by Irrep:
              A 
    DOCC [     5 ]
    NA   [     5 ]
    NB   [     5 ]

  @RHF Final Energy:   -74.96466253910499

   => Energetics <=

    Nuclear Repulsion Energy =              8.8014655645634061
    One-Electron Energy =                -121.6767825481757370
    Two-Electron Energy =                  37.9106544445073439
    Total Energy =                        -74.9646625391049923

Computation Completed


Properties will be evaluated at   0.000000,   0.000000,   0.000000 [a0]

Properties computed using the SCF density matrix


 Multipole Moments:

 ------------------------------------------------------------------------------------
     Multipole            Electronic (a.u.)      Nuclear  (a.u.)        Total (a.u.)
 ------------------------------------------------------------------------------------

 L = 1.  Multiply by 2.5417464519 to convert [e a0] to [Debye]
 Dipole X            :          0.0000000            0.0000000            0.0000000
 Dipole Y            :         -0.0000000            0.0000000           -0.0000000
 Dipole Z            :         -0.3624478            1.0190771            0.6566293
 Magnitude           :                                                    0.6566293

 ------------------------------------------------------------------------------------

*** tstop() called on Alberts-MacBook-Pro.local at Sat Jun 20 15:54:39 2026
Module time:
	user time   =       0.06 seconds =       0.00 minutes
	system time =       0.00 seconds =       0.00 minutes
	total time  =          0 seconds =       0.00 minutes
Total time:
	user time   =       0.52 seconds =       0.01 minutes
	system time =       0.42 seconds =       0.01 minutes
	total time  =          1 seconds =       0.02 minutes
   => Loading Basis Set <=

    Name: (STO-3G AUX)
    Role: JKFIT
    Keyword: DF_BASIS_SCF
    atoms 1   entry O          line   318 file /Users/deprince/software/psi4/v1.10/psi4/install/share/psi4/basis/def2-universal-jkfit.gbs 
    atoms 2-3 entry H          line    18 file /Users/deprince/software/psi4/v1.10/psi4/install/share/psi4/basis/def2-universal-jkfit.gbs 

   => Loading Basis Set <=

    Name: (STO-3G AUX)
    Role: RIFIT
    Keyword: DF_BASIS_CC
    atoms 1   entry O          line   233 file /Users/deprince/software/psi4/v1.10/psi4/install/share/psi4/basis/def2-svp-ri.gbs 
    atoms 2-3 entry H          line    22 file /Users/deprince/software/psi4/v1.10/psi4/install/share/psi4/basis/def2-svp-ri.gbs 


Reading options from the HILBERT block
Calling plugin hilbert.so.


Plugins that use gradients: set Da, Db, and Lagrangian for gradient theory on the wavefunction. The old way of passing these will stop working as soon as 1.8.    Molecular point group: c1
    Full point group: C2v

    Geometry (in Angstrom), charge = 0, multiplicity = 1:

       Center              X                  Y                   Z               Mass       
    ------------   -----------------  -----------------  -----------------  -----------------
         O            0.000000000000     0.000000000000    -0.068516219320    15.994914619570
         H            0.000000000000    -0.790689573744     0.543701060715     1.007825032230
         H            0.000000000000     0.790689573744     0.543701060715     1.007825032230

  -AO BASIS SET INFORMATION:
    Name                   = STO-3G
    Blend                  = STO-3G
    Total number of shells = 5
    Number of primitives   = 15
    Number of AO           = 7
    Number of SO           = 7
    Maximum AM             = 1
    Spherical Harmonics    = TRUE

  -Contraction Scheme:
    Atom   Type   All Primitives // Shells:
   ------ ------ --------------------------
       1     O     6s 3p // 2s 1p 
       2     H     3s // 1s 
       3     H     3s // 1s 

  ==> AO Basis Functions <==

    [ STO-3G ]
    spherical
    ****
    O   1
    S   3 1.00
                       130.70932000           0.15432897
                        23.80886100           0.53532814
                         6.44360830           0.44463454
    S   3 1.00
                         5.03315130          -0.09996723
                         1.16959610           0.39951283
                         0.38038900           0.70011547
    P   3 1.00
                         5.03315130           0.15591627
                         1.16959610           0.60768372
                         0.38038900           0.39195739
    ****
    H   2
    S   3 1.00
                         3.42525091           0.15432897
                         0.62391373           0.53532814
                         0.16885540           0.44463454
    ****
    H   3
    S   3 1.00
                         3.42525091           0.15432897
                         0.62391373           0.53532814
                         0.16885540           0.44463454
    ****



        *******************************************************
        *                                                     *
        *                                                     *
        *    Polaritonic RHF                                  *
        *                                                     *
        *                                                     *
        *******************************************************
    Molecular point group: c1
    Full point group: C2v

    Geometry (in Angstrom), charge = 0, multiplicity = 1:

       Center              X                  Y                   Z               Mass       
    ------------   -----------------  -----------------  -----------------  -----------------
         O            0.000000000000     0.000000000000    -0.068516219320    15.994914619570
         H            0.000000000000    -0.790689573744     0.543701060715     1.007825032230
         H            0.000000000000     0.790689573744     0.543701060715     1.007825032230

  -AO BASIS SET INFORMATION:
    Name                   = STO-3G
    Blend                  = STO-3G
    Total number of shells = 5
    Number of primitives   = 15
    Number of AO           = 7
    Number of SO           = 7
    Maximum AM             = 1
    Spherical Harmonics    = TRUE

  -Contraction Scheme:
    Atom   Type   All Primitives // Shells:
   ------ ------ --------------------------
       1     O     6s 3p // 2s 1p 
       2     H     3s // 1s 
       3     H     3s // 1s 

  ==> AO Basis Functions <==

    [ STO-3G ]
    spherical
    ****
    O   1
    S   3 1.00
                       130.70932000           0.15432897
                        23.80886100           0.53532814
                         6.44360830           0.44463454
    S   3 1.00
                         5.03315130          -0.09996723
                         1.16959610           0.39951283
                         0.38038900           0.70011547
    P   3 1.00
                         5.03315130           0.15591627
                         1.16959610           0.60768372
                         0.38038900           0.39195739
    ****
    H   2
    S   3 1.00
                         3.42525091           0.15432897
                         0.62391373           0.53532814
                         0.16885540           0.44463454
    ****
    H   3
    S   3 1.00
                         3.42525091           0.15432897
                         0.62391373           0.53532814
                         0.16885540           0.44463454
    ****


    No. basis functions:                7
    cholesky_tolerance:             1.000000e-12
    No. electrons:                     10
    e_convergence:              1.000e-10
    d_convergence:              1.000e-10
    maxiter:                           50



    Guess energy:      -74.964498328625

    ==>  Begin SCF Iterations <==

     Iter               energy                   dE          RMS |[F,P]| 
        0     -74.960093626807       0.004404701819       0.000149269121
        1     -74.960093981817      -0.000000355010       0.000050659259
        2     -74.960094635482      -0.000000653665       0.000019307678
        3     -74.960094810600      -0.000000175118       0.000003400521
        4     -74.960094961659      -0.000000151060       0.000000572020
        5     -74.960094985721      -0.000000024061       0.000000002510
        6     -74.960094985282       0.000000000438       0.000000001208
        7     -74.960094985277       0.000000000005       0.000000002008
        8     -74.960094985282      -0.000000000005       0.000000000389
        9     -74.960094985281       0.000000000001       0.000000000031

    SCF iterations converged!


    ==> dipole self-energy: 1/2 lambda^2 ( <mu_e^2> - <mu_e>^2 ) <==

    one-electron part;        0.007653679673
    two-electron part:       -0.003087481668
    total:                    0.004566198004


    ==> dipole integrals <== 

    <mu_x> =       0.000000000000
    <mu_y> =      -0.000000000000
    <mu_z> =      -0.360411869237


    ==> dipole variance: ( <mu_e^2> - <mu_e>^2 ) <== 

    one electron (xx):       4.557760744643
    one electron (xy):      -0.000000000000
    one electron (xz):       0.000000000000
    one electron (yy):       7.687949703493
    one electron (yz):       0.000000000000
    one electron (zz):       6.122943738055

    two electron (xx):      -1.666121731559
    two electron (xy):       0.000000000000
    two electron (xz):      -0.000000000000
    two electron (yy):      -3.357994331015
    two electron (yz):      -0.000000000000
    two electron (zz):      -2.469985334685

    total (xx):              2.891639013085
    total (xy):             -0.000000000000
    total (xz):              0.000000000000
    total (yy):              4.329955372479
    total (yz):              0.000000000000
    total (zz):              3.652958403370

    * Polaritonic RHF total energy:     -74.960094985281

 #  #
 Irrep: 1
      1:  -20.246554088301657
      2:   -1.247964265309264
      3:   -0.595042815266335
      4:   -0.447450508203924
      5:   -0.388198232411007
      6:    0.565555506358413
      7:    0.693756606194756

    Molecular point group: c1
    Full point group: C2v

    Geometry (in Angstrom), charge = 0, multiplicity = 1:

       Center              X                  Y                   Z               Mass       
    ------------   -----------------  -----------------  -----------------  -----------------
         O            0.000000000000     0.000000000000    -0.068516219320    15.994914619570
         H            0.000000000000    -0.790689573744     0.543701060715     1.007825032230
         H            0.000000000000     0.790689573744     0.543701060715     1.007825032230

  -AO BASIS SET INFORMATION:
    Name                   = STO-3G
    Blend                  = STO-3G
    Total number of shells = 5
    Number of primitives   = 15
    Number of AO           = 7
    Number of SO           = 7
    Maximum AM             = 1
    Spherical Harmonics    = TRUE

  -Contraction Scheme:
    Atom   Type   All Primitives // Shells:
   ------ ------ --------------------------
       1     O     6s 3p // 2s 1p 
       2     H     3s // 1s 
       3     H     3s // 1s 

  ==> AO Basis Functions <==

    [ STO-3G ]
    spherical
    ****
    O   1
    S   3 1.00
                       130.70932000           0.15432897
                        23.80886100           0.53532814
                         6.44360830           0.44463454
    S   3 1.00
                         5.03315130          -0.09996723
                         1.16959610           0.39951283
                         0.38038900           0.70011547
    P   3 1.00
                         5.03315130           0.15591627
                         1.16959610           0.60768372
                         0.38038900           0.39195739
    ****
    H   2
    S   3 1.00
                         3.42525091           0.15432897
                         0.62391373           0.53532814
                         0.16885540           0.44463454
    ****
    H   3
    S   3 1.00
                         3.42525091           0.15432897
                         0.62391373           0.53532814
                         0.16885540           0.44463454
    ****



        *******************************************************
        *                                                     *
        *                      -----------                    *
        *                       CC CAVITY                     *
        *                      -----------                    *
        *                                                     *
        *******************************************************



    madness threads:                    1
    omp threads:                        1
    No. basis functions:                7
    No. auxiliary basis functions:     28
    No. alpha electrons:                5
    No. alpha virtuals:                 2
    No. beta electrons:                 5
    No. beta virtuals:                  2
    e_convergence:              1.000e-10
    r_convergence:              1.000e-10
    maxiter:                           50


  Included amplitudes:
          T0,1      
      T1  T1,1      
      T2  T2,1      

  Dimension of CC amplitudes: 641

  V_cav (nm3) = 0.74485760
  lambda      = x: 0.00000000 y: 0.00000000 z: 0.05000000
  hw          = 0.10000000
  electric dipole moments: x: 0.00000000 y: -0.00000000 z: -0.36041187
  average electric dipole self-energy: 0.00016237
  Using relaxed orbitals.

    ==>  Begin QED-CCSD-21 iterations <==    

 Iter           energy              dE            |dT|  |   |dT1|  |dT2| |dT0,1||dT1,1||dT2,1|
    0    0.000000000000  0.000000000000  0.135205062214 |   2e-10  1e-01  3e-13  1e-02  0e+00
    1   -0.039647452787 -0.039647452787  0.038172943774 |   1e-02  4e-02  1e-12  1e-03  1e-03
    2   -0.050183162532 -0.010535709745  0.015790237241 |   6e-03  1e-02  3e-03  5e-04  5e-04
    3   -0.055135058051 -0.004951895519  0.003591465609 |   2e-03  3e-03  3e-04  2e-04  1e-04
    4   -0.055569371427 -0.000434313376  0.000820644066 |   6e-04  5e-04  4e-05  6e-05  5e-05
    5   -0.055594335369 -0.000024963942  0.000222300852 |   2e-04  1e-04  4e-05  2e-05  1e-05
    6   -0.055588710196  0.000005625173  0.000015254104 |   7e-06  1e-05  1e-06  3e-06  2e-06
    7   -0.055588612953  0.000000097243  0.000002945637 |   1e-06  3e-06  3e-07  6e-07  6e-07
    8   -0.055588533082  0.000000079871  0.000000589642 |   1e-07  5e-07  3e-07  1e-07  1e-07
    9   -0.055588541610 -0.000000008528  0.000000570057 |   1e-07  5e-07  3e-07  1e-07  1e-07
   10   -0.055588557968 -0.000000016357  0.000000209762 |   6e-08  2e-07  9e-08  4e-08  4e-08
   11   -0.055588563176 -0.000000005208  0.000000028266 |   1e-08  2e-08  8e-09  2e-09  4e-09
   12   -0.055588562336  0.000000000840  0.000000004262 |   5e-10  4e-09  2e-09  4e-10  1e-09
   13   -0.055588562269  0.000000000067  0.000000000981 |   5e-10  8e-10  2e-10  1e-10  3e-10
   14   -0.055588562393 -0.000000000124  0.000000000346 |   2e-10  2e-10  1e-10  1e-11  9e-11
   15   -0.055588562440 -0.000000000048  0.000000000046 |   3e-11  3e-11  8e-12  4e-12  9e-12

    QED-CCSD-21 iterations converged!

    * QED-CCSD-21 total energy:     -75.015683547721


   Norms of cluster amplitudes:
   ------------------------------
     T1:  0.023170051722 |  1.55 %
     T2:  0.183925734698 | 97.96 %
   T0,1:  0.005360584652 |  0.08 %
   T1,1:  0.011600869056 |  0.39 %
   T2,1:  0.002190561402 |  0.01 %
   ------------------------------
    Total:  0.185832294747

  ==> Time spent in CC iterations <==  
                    Total: 3.809 s
      Residuals Equations: total =    1.390 s | average =  81.740 ms
      Transform Integrals: total =    2.373 s | average = 139.593 ms
        Update Amplitudes: total = 181.012 ms | average =   5.324 ms

    QED-CCSD-21 (TA) total energy (z-pol).................................................PASSED

Scratch directory: /Users/deprince/psi4_scratch/
   => Libint2 <=

    Primary   basis highest AM E, G, H:  5, 4, 3
    Auxiliary basis highest AM E, G, H:  6, 5, 4
    Onebody   basis highest AM E, G, H:  6, 5, 4
    Solid Harmonics ordering:            Gaussian

*** tstart() called on Alberts-MacBook-Pro.local
*** at Sat Jun 20 15:54:43 2026

   => Loading Basis Set <=

    Name: STO-3G
    Role: ORBITAL
    Keyword: BASIS
    atoms 1   entry O          line    81 file /Users/deprince/software/psi4/v1.10/psi4/install/share/psi4/basis/sto-3g.gbs 
    atoms 2-3 entry H          line    19 file /Users/deprince/software/psi4/v1.10/psi4/install/share/psi4/basis/sto-3g.gbs 


         ---------------------------------------------------------
                                   SCF
               by Justin Turney, Rob Parrish, Andy Simmonett
                          and Daniel G. A. Smith
                              RHF Reference
                        1 Threads,    953 MiB Core
         ---------------------------------------------------------

  ==> Geometry <==

    Molecular point group: c1
    Full point group: C2v

    Geometry (in Angstrom), charge = 0, multiplicity = 1:

       Center              X                  Y                   Z               Mass       
    ------------   -----------------  -----------------  -----------------  -----------------
         O            0.000000000000    -0.068516219320     0.000000000000    15.994914619570
         H           -0.790689573744     0.543701060715     0.000000000000     1.007825032230
         H            0.790689573744     0.543701060715     0.000000000000     1.007825032230

  Running in c1 symmetry.

  Rotational constants: A =     25.12555  B =     13.37733  C =      8.72955 [cm^-1]
  Rotational constants: A = 753245.07149  B = 401042.16706  C = 261705.25473 [MHz]
  Nuclear repulsion =    8.801465564563404

  Charge       = 0
  Multiplicity = 1
  Electrons    = 10
  Nalpha       = 5
  Nbeta        = 5

  ==> Algorithm <==

  SCF Algorithm Type is CD.
  DIIS enabled.
  MOM disabled.
  Fractional occupation disabled.
  Guess Type is SAD.
  Energy threshold   = 1.00e-10
  Density threshold  = 1.00e-10
  Integral threshold = 1.00e-12

  ==> Primary Basis <==

  Basis Set: STO-3G
    Blend: STO-3G
    Number of shells: 5
    Number of basis functions: 7
    Number of Cartesian functions: 7
    Spherical Harmonics?: true
    Max angular momentum: 1

  ==> Integral Setup <==

  ==> CDJK: Cholesky-decomposed J/K Matrices <==

    J tasked:                     Yes
    K tasked:                     Yes
    wK tasked:                     No
    OpenMP threads:                 1
    Integrals threads:              1
    Memory [MiB]:                 715
    Algorithm:                   Core
    Integral Cache:              SAVE
    Schwarz Cutoff:             1E-12
    Cholesky tolerance:      1.00E-12
    No. Cholesky vectors:          28

  Minimum eigenvalue in the overlap matrix is 3.7028400386E-01.
  Reciprocal condition number of the overlap matrix is 1.9726983142E-01.
    Using symmetric orthogonalization.

  ==> Pre-Iterations <==

  SCF Guess: Superposition of Atomic Densities via on-the-fly atomic UHF (no occupation information).

   -------------------------
    Irrep   Nso     Nmo    
   -------------------------
     A          7       7 
   -------------------------
    Total       7       7
   -------------------------

  ==> Iterations <==

                        Total Energy        Delta E     RMS |[F,P]|

   @RHF iter SAD:   -74.30946884944849   -7.43095e+01   0.00000e+00 
   @RHF iter   1:   -74.92881817101735   -6.19349e-01   3.43856e-02 DIIS/ADIIS
   @RHF iter   2:   -74.96348479981395   -3.46666e-02   5.18640e-03 DIIS/ADIIS
   @RHF iter   3:   -74.96460696614768   -1.12217e-03   1.26126e-03 DIIS/ADIIS
   @RHF iter   4:   -74.96466238340689   -5.54173e-05   4.90456e-05 DIIS
   @RHF iter   5:   -74.96466251582419   -1.32417e-07   1.69025e-05 DIIS
   @RHF iter   6:   -74.96466253910314   -2.32790e-08   2.14671e-07 DIIS
   @RHF iter   7:   -74.96466253910498   -1.83320e-12   9.12017e-10 DIIS
   @RHF iter   8:   -74.96466253910496    1.42109e-14   2.60414e-12 DIIS
  Energy and wave function converged.


  ==> Post-Iterations <==

    Orbital Energies [Eh]
    ---------------------

    Doubly Occupied:                                                      

       1A    -20.247270     2A     -1.247775     3A     -0.595851  
       4A     -0.447884     5A     -0.388956  

    Virtual:                                                              

       6A      0.564152     7A      0.693007  

    Final Occupation by Irrep:
              A 
    DOCC [     5 ]
    NA   [     5 ]
    NB   [     5 ]

  @RHF Final Energy:   -74.96466253910496

   => Energetics <=

    Nuclear Repulsion Energy =              8.8014655645634043
    One-Electron Energy =                -121.6767825481755949
    Two-Electron Energy =                  37.9106544445072231
    Total Energy =                        -74.9646625391049781

Computation Completed


Properties will be evaluated at   0.000000,   0.000000,   0.000000 [a0]

Properties computed using the SCF density matrix


 Multipole Moments:

 ------------------------------------------------------------------------------------
     Multipole            Electronic (a.u.)      Nuclear  (a.u.)        Total (a.u.)
 ------------------------------------------------------------------------------------

 L = 1.  Multiply by 2.5417464519 to convert [e a0] to [Debye]
 Dipole X            :         -0.0000000            0.0000000           -0.0000000
 Dipole Y            :         -0.3624478            1.0190771            0.6566293
 Dipole Z            :          0.0000000            0.0000000            0.0000000
 Magnitude           :                                                    0.6566293

 ------------------------------------------------------------------------------------

*** tstop() called on Alberts-MacBook-Pro.local at Sat Jun 20 15:54:43 2026
Module time:
	user time   =       0.07 seconds =       0.00 minutes
	system time =       0.01 seconds =       0.00 minutes
	total time  =          0 seconds =       0.00 minutes
Total time:
	user time   =       4.59 seconds =       0.08 minutes
	system time =       0.44 seconds =       0.01 minutes
	total time  =          5 seconds =       0.08 minutes
   => Loading Basis Set <=

    Name: (STO-3G AUX)
    Role: JKFIT
    Keyword: DF_BASIS_SCF
    atoms 1   entry O          line   318 file /Users/deprince/software/psi4/v1.10/psi4/install/share/psi4/basis/def2-universal-jkfit.gbs 
    atoms 2-3 entry H          line    18 file /Users/deprince/software/psi4/v1.10/psi4/install/share/psi4/basis/def2-universal-jkfit.gbs 

   => Loading Basis Set <=

    Name: (STO-3G AUX)
    Role: RIFIT
    Keyword: DF_BASIS_CC
    atoms 1   entry O          line   233 file /Users/deprince/software/psi4/v1.10/psi4/install/share/psi4/basis/def2-svp-ri.gbs 
    atoms 2-3 entry H          line    22 file /Users/deprince/software/psi4/v1.10/psi4/install/share/psi4/basis/def2-svp-ri.gbs 


Reading options from the HILBERT block
Calling plugin hilbert.so.


Plugins that use gradients: set Da, Db, and Lagrangian for gradient theory on the wavefunction. The old way of passing these will stop working as soon as 1.8.    Molecular point group: c1
    Full point group: C2v

    Geometry (in Angstrom), charge = 0, multiplicity = 1:

       Center              X                  Y                   Z               Mass       
    ------------   -----------------  -----------------  -----------------  -----------------
         O            0.000000000000    -0.068516219320     0.000000000000    15.994914619570
         H           -0.790689573744     0.543701060715     0.000000000000     1.007825032230
         H            0.790689573744     0.543701060715     0.000000000000     1.007825032230

  -AO BASIS SET INFORMATION:
    Name                   = STO-3G
    Blend                  = STO-3G
    Total number of shells = 5
    Number of primitives   = 15
    Number of AO           = 7
    Number of SO           = 7
    Maximum AM             = 1
    Spherical Harmonics    = TRUE

  -Contraction Scheme:
    Atom   Type   All Primitives // Shells:
   ------ ------ --------------------------
       1     O     6s 3p // 2s 1p 
       2     H     3s // 1s 
       3     H     3s // 1s 

  ==> AO Basis Functions <==

    [ STO-3G ]
    spherical
    ****
    O   1
    S   3 1.00
                       130.70932000           0.15432897
                        23.80886100           0.53532814
                         6.44360830           0.44463454
    S   3 1.00
                         5.03315130          -0.09996723
                         1.16959610           0.39951283
                         0.38038900           0.70011547
    P   3 1.00
                         5.03315130           0.15591627
                         1.16959610           0.60768372
                         0.38038900           0.39195739
    ****
    H   2
    S   3 1.00
                         3.42525091           0.15432897
                         0.62391373           0.53532814
                         0.16885540           0.44463454
    ****
    H   3
    S   3 1.00
                         3.42525091           0.15432897
                         0.62391373           0.53532814
                         0.16885540           0.44463454
    ****



        *******************************************************
        *                                                     *
        *                                                     *
        *    Polaritonic RHF                                  *
        *                                                     *
        *                                                     *
        *******************************************************
    Molecular point group: c1
    Full point group: C2v

    Geometry (in Angstrom), charge = 0, multiplicity = 1:

       Center              X                  Y                   Z               Mass       
    ------------   -----------------  -----------------  -----------------  -----------------
         O            0.000000000000    -0.068516219320     0.000000000000    15.994914619570
         H           -0.790689573744     0.543701060715     0.000000000000     1.007825032230
         H            0.790689573744     0.543701060715     0.000000000000     1.007825032230

  -AO BASIS SET INFORMATION:
    Name                   = STO-3G
    Blend                  = STO-3G
    Total number of shells = 5
    Number of primitives   = 15
    Number of AO           = 7
    Number of SO           = 7
    Maximum AM             = 1
    Spherical Harmonics    = TRUE

  -Contraction Scheme:
    Atom   Type   All Primitives // Shells:
   ------ ------ --------------------------
       1     O     6s 3p // 2s 1p 
       2     H     3s // 1s 
       3     H     3s // 1s 

  ==> AO Basis Functions <==

    [ STO-3G ]
    spherical
    ****
    O   1
    S   3 1.00
                       130.70932000           0.15432897
                        23.80886100           0.53532814
                         6.44360830           0.44463454
    S   3 1.00
                         5.03315130          -0.09996723
                         1.16959610           0.39951283
                         0.38038900           0.70011547
    P   3 1.00
                         5.03315130           0.15591627
                         1.16959610           0.60768372
                         0.38038900           0.39195739
    ****
    H   2
    S   3 1.00
                         3.42525091           0.15432897
                         0.62391373           0.53532814
                         0.16885540           0.44463454
    ****
    H   3
    S   3 1.00
                         3.42525091           0.15432897
                         0.62391373           0.53532814
                         0.16885540           0.44463454
    ****


    No. basis functions:                7
    cholesky_tolerance:             1.000000e-12
    No. electrons:                     10
    e_convergence:              1.000e-10
    d_convergence:              1.000e-10
    maxiter:                           50



    Guess energy:      -74.964498328625

    ==>  Begin SCF Iterations <==

     Iter               energy                   dE          RMS |[F,P]| 
        0     -74.960093626806       0.004404701819       0.000149269121
        1     -74.960093981817      -0.000000355010       0.000050659259
        2     -74.960094635482      -0.000000653665       0.000019307678
        3     -74.960094810600      -0.000000175118       0.000003400521
        4     -74.960094961659      -0.000000151060       0.000000572020
        5     -74.960094985721      -0.000000024061       0.000000002510
        6     -74.960094985282       0.000000000438       0.000000001208
        7     -74.960094985277       0.000000000006       0.000000002009
        8     -74.960094985281      -0.000000000004       0.000000001390
        9     -74.960094985282      -0.000000000001       0.000000000010

    SCF iterations converged!


    ==> dipole self-energy: 1/2 lambda^2 ( <mu_e^2> - <mu_e>^2 ) <==

    one-electron part;        0.007653679673
    two-electron part:       -0.003087481668
    total:                    0.004566198004


    ==> dipole integrals <== 

    <mu_x> =       0.000000000000
    <mu_y> =      -0.360411869260
    <mu_z> =       0.000000000000


    ==> dipole variance: ( <mu_e^2> - <mu_e>^2 ) <== 

    one electron (xx):       7.687949703645
    one electron (xy):      -0.000000000000
    one electron (xz):      -0.000000000000
    one electron (yy):       6.122943738128
    one electron (yz):       0.000000000000
    one electron (zz):       4.557760744680

    two electron (xx):      -3.357994331293
    two electron (xy):       0.000000000000
    two electron (xz):       0.000000000000
    two electron (yy):      -2.469985334670
    two electron (yz):      -0.000000000000
    two electron (zz):      -1.666121731551

    total (xx):              4.329955372352
    total (xy):             -0.000000000000
    total (xz):              0.000000000000
    total (yy):              3.652958403458
    total (yz):             -0.000000000000
    total (zz):              2.891639013128

    * Polaritonic RHF total energy:     -74.960094985282

 #  #
 Irrep: 1
      1:  -20.246554088337607
      2:   -1.247964265334465
      3:   -0.595042815255070
      4:   -0.447450508232258
      5:   -0.388198232428941
      6:    0.565555506279071
      7:    0.693756606220544

    Molecular point group: c1
    Full point group: C2v

    Geometry (in Angstrom), charge = 0, multiplicity = 1:

       Center              X                  Y                   Z               Mass       
    ------------   -----------------  -----------------  -----------------  -----------------
         O            0.000000000000    -0.068516219320     0.000000000000    15.994914619570
         H           -0.790689573744     0.543701060715     0.000000000000     1.007825032230
         H            0.790689573744     0.543701060715     0.000000000000     1.007825032230

  -AO BASIS SET INFORMATION:
    Name                   = STO-3G
    Blend                  = STO-3G
    Total number of shells = 5
    Number of primitives   = 15
    Number of AO           = 7
    Number of SO           = 7
    Maximum AM             = 1
    Spherical Harmonics    = TRUE

  -Contraction Scheme:
    Atom   Type   All Primitives // Shells:
   ------ ------ --------------------------
       1     O     6s 3p // 2s 1p 
       2     H     3s // 1s 
       3     H     3s // 1s 

  ==> AO Basis Functions <==

    [ STO-3G ]
    spherical
    ****
    O   1
    S   3 1.00
                       130.70932000           0.15432897
                        23.80886100           0.53532814
                         6.44360830           0.44463454
    S   3 1.00
                         5.03315130          -0.09996723
                         1.16959610           0.39951283
                         0.38038900           0.70011547
    P   3 1.00
                         5.03315130           0.15591627
                         1.16959610           0.60768372
                         0.38038900           0.39195739
    ****
    H   2
    S   3 1.00
                         3.42525091           0.15432897
                         0.62391373           0.53532814
                         0.16885540           0.44463454
    ****
    H   3
    S   3 1.00
                         3.42525091           0.15432897
                         0.62391373           0.53532814
                         0.16885540           0.44463454
    ****



        *******************************************************
        *                                                     *
        *                                                     *
        *    UCCSD                                            *
        *                                                     *
        *                                                     *
        *******************************************************

    ==> Hamiltonian type <==

        molecular


    Required memory:               0.4 mb


    No. basis functions:                7
    No. auxiliary basis functions:     28
    No. alpha electrons:                5
    No. beta electrons:                 5
    e_convergence:              1.000e-10
    r_convergence:              1.000e-10
    maxiter:                           50



    ==>  Begin CCSD Iterations <==

     Iter               energy                   dE                 |dT| 
        0      -0.039647452787      -0.039647452787       0.248949985055
        1      -0.050183162532      -0.010535709745       0.073952357185
        2      -0.055304919266      -0.005121756734       0.028260011321
        3      -0.055558900595      -0.000253981329       0.004521840080
        4      -0.055587703839      -0.000028803244       0.001155241686
        5      -0.055587869627      -0.000000165788       0.000285876975
        6      -0.055588670895      -0.000000801268       0.000023354832
        7      -0.055588544002       0.000000126893       0.000004835694
        8      -0.055588521490       0.000000022512       0.000000954051
        9      -0.055588561760      -0.000000040270       0.000001167311
       10      -0.055588564181      -0.000000002422       0.000000348984
       11      -0.055588562406       0.000000001776       0.000000056948
       12      -0.055588562196       0.000000000210       0.000000013899
       13      -0.055588562425      -0.000000000229       0.000000002101
       14      -0.055588562440      -0.000000000014       0.000000000435
       15      -0.055588562439       0.000000000001       0.000000000121
       16      -0.055588562439       0.000000000000       0.000000000010

    CCSD iterations converged!

    * Polaritonic UCCSD total energy:     -75.015683547720

Scratch directory: /Users/deprince/psi4_scratch/
   => Libint2 <=

    Primary   basis highest AM E, G, H:  5, 4, 3
    Auxiliary basis highest AM E, G, H:  6, 5, 4
    Onebody   basis highest AM E, G, H:  6, 5, 4
    Solid Harmonics ordering:            Gaussian

*** tstart() called on Alberts-MacBook-Pro.local
*** at Sat Jun 20 15:54:43 2026

   => Loading Basis Set <=

    Name: STO-3G
    Role: ORBITAL
    Keyword: BASIS
    atoms 1   entry O          line    81 file /Users/deprince/software/psi4/v1.10/psi4/install/share/psi4/basis/sto-3g.gbs 
    atoms 2-3 entry H          line    19 file /Users/deprince/software/psi4/v1.10/psi4/install/share/psi4/basis/sto-3g.gbs 


         ---------------------------------------------------------
                                   SCF
               by Justin Turney, Rob Parrish, Andy Simmonett
                          and Daniel G. A. Smith
                              RHF Reference
                        1 Threads,    953 MiB Core
         ---------------------------------------------------------

  ==> Geometry <==

    Molecular point group: c1
    Full point group: C2v

    Geometry (in Angstrom), charge = 0, multiplicity = 1:

       Center              X                  Y                   Z               Mass       
    ------------   -----------------  -----------------  -----------------  -----------------
         O            0.000000000000    -0.068516219320     0.000000000000    15.994914619570
         H           -0.790689573744     0.543701060715     0.000000000000     1.007825032230
         H            0.790689573744     0.543701060715     0.000000000000     1.007825032230

  Running in c1 symmetry.

  Rotational constants: A =     25.12555  B =     13.37733  C =      8.72955 [cm^-1]
  Rotational constants: A = 753245.07149  B = 401042.16706  C = 261705.25473 [MHz]
  Nuclear repulsion =    8.801465564563404

  Charge       = 0
  Multiplicity = 1
  Electrons    = 10
  Nalpha       = 5
  Nbeta        = 5

  ==> Algorithm <==

  SCF Algorithm Type is CD.
  DIIS enabled.
  MOM disabled.
  Fractional occupation disabled.
  Guess Type is SAD.
  Energy threshold   = 1.00e-10
  Density threshold  = 1.00e-10
  Integral threshold = 1.00e-12

  ==> Primary Basis <==

  Basis Set: STO-3G
    Blend: STO-3G
    Number of shells: 5
    Number of basis functions: 7
    Number of Cartesian functions: 7
    Spherical Harmonics?: true
    Max angular momentum: 1

  ==> Integral Setup <==

  ==> CDJK: Cholesky-decomposed J/K Matrices <==

    J tasked:                     Yes
    K tasked:                     Yes
    wK tasked:                     No
    OpenMP threads:                 1
    Integrals threads:              1
    Memory [MiB]:                 715
    Algorithm:                   Core
    Integral Cache:              SAVE
    Schwarz Cutoff:             1E-12
    Cholesky tolerance:      1.00E-12
    No. Cholesky vectors:          28

  Minimum eigenvalue in the overlap matrix is 3.7028400386E-01.
  Reciprocal condition number of the overlap matrix is 1.9726983142E-01.
    Using symmetric orthogonalization.

  ==> Pre-Iterations <==

  SCF Guess: Superposition of Atomic Densities via on-the-fly atomic UHF (no occupation information).

   -------------------------
    Irrep   Nso     Nmo    
   -------------------------
     A          7       7 
   -------------------------
    Total       7       7
   -------------------------

  ==> Iterations <==

                        Total Energy        Delta E     RMS |[F,P]|

   @RHF iter SAD:   -74.30946884944849   -7.43095e+01   0.00000e+00 
   @RHF iter   1:   -74.92881817101735   -6.19349e-01   3.43856e-02 DIIS/ADIIS
   @RHF iter   2:   -74.96348479981395   -3.46666e-02   5.18640e-03 DIIS/ADIIS
   @RHF iter   3:   -74.96460696614768   -1.12217e-03   1.26126e-03 DIIS/ADIIS
   @RHF iter   4:   -74.96466238340689   -5.54173e-05   4.90456e-05 DIIS
   @RHF iter   5:   -74.96466251582419   -1.32417e-07   1.69025e-05 DIIS
   @RHF iter   6:   -74.96466253910314   -2.32790e-08   2.14671e-07 DIIS
   @RHF iter   7:   -74.96466253910498   -1.83320e-12   9.12017e-10 DIIS
   @RHF iter   8:   -74.96466253910496    1.42109e-14   2.60414e-12 DIIS
  Energy and wave function converged.


  ==> Post-Iterations <==

    Orbital Energies [Eh]
    ---------------------

    Doubly Occupied:                                                      

       1A    -20.247270     2A     -1.247775     3A     -0.595851  
       4A     -0.447884     5A     -0.388956  

    Virtual:                                                              

       6A      0.564152     7A      0.693007  

    Final Occupation by Irrep:
              A 
    DOCC [     5 ]
    NA   [     5 ]
    NB   [     5 ]

  @RHF Final Energy:   -74.96466253910496

   => Energetics <=

    Nuclear Repulsion Energy =              8.8014655645634043
    One-Electron Energy =                -121.6767825481755949
    Two-Electron Energy =                  37.9106544445072231
    Total Energy =                        -74.9646625391049781

Computation Completed


Properties will be evaluated at   0.000000,   0.000000,   0.000000 [a0]

Properties computed using the SCF density matrix


 Multipole Moments:

 ------------------------------------------------------------------------------------
     Multipole            Electronic (a.u.)      Nuclear  (a.u.)        Total (a.u.)
 ------------------------------------------------------------------------------------

 L = 1.  Multiply by 2.5417464519 to convert [e a0] to [Debye]
 Dipole X            :         -0.0000000            0.0000000           -0.0000000
 Dipole Y            :         -0.3624478            1.0190771            0.6566293
 Dipole Z            :          0.0000000            0.0000000            0.0000000
 Magnitude           :                                                    0.6566293

 ------------------------------------------------------------------------------------

*** tstop() called on Alberts-MacBook-Pro.local at Sat Jun 20 15:54:43 2026
Module time:
	user time   =       0.06 seconds =       0.00 minutes
	system time =       0.00 seconds =       0.00 minutes
	total time  =          0 seconds =       0.00 minutes
Total time:
	user time   =       4.75 seconds =       0.08 minutes
	system time =       0.47 seconds =       0.01 minutes
	total time  =          5 seconds =       0.08 minutes
   => Loading Basis Set <=

    Name: (STO-3G AUX)
    Role: JKFIT
    Keyword: DF_BASIS_SCF
    atoms 1   entry O          line   318 file /Users/deprince/software/psi4/v1.10/psi4/install/share/psi4/basis/def2-universal-jkfit.gbs 
    atoms 2-3 entry H          line    18 file /Users/deprince/software/psi4/v1.10/psi4/install/share/psi4/basis/def2-universal-jkfit.gbs 

   => Loading Basis Set <=

    Name: (STO-3G AUX)
    Role: RIFIT
    Keyword: DF_BASIS_CC
    atoms 1   entry O          line   233 file /Users/deprince/software/psi4/v1.10/psi4/install/share/psi4/basis/def2-svp-ri.gbs 
    atoms 2-3 entry H          line    22 file /Users/deprince/software/psi4/v1.10/psi4/install/share/psi4/basis/def2-svp-ri.gbs 


Reading options from the HILBERT block
Calling plugin hilbert.so.


Plugins that use gradients: set Da, Db, and Lagrangian for gradient theory on the wavefunction. The old way of passing these will stop working as soon as 1.8.    Molecular point group: c1
    Full point group: C2v

    Geometry (in Angstrom), charge = 0, multiplicity = 1:

       Center              X                  Y                   Z               Mass       
    ------------   -----------------  -----------------  -----------------  -----------------
         O            0.000000000000    -0.068516219320     0.000000000000    15.994914619570
         H           -0.790689573744     0.543701060715     0.000000000000     1.007825032230
         H            0.790689573744     0.543701060715     0.000000000000     1.007825032230

  -AO BASIS SET INFORMATION:
    Name                   = STO-3G
    Blend                  = STO-3G
    Total number of shells = 5
    Number of primitives   = 15
    Number of AO           = 7
    Number of SO           = 7
    Maximum AM             = 1
    Spherical Harmonics    = TRUE

  -Contraction Scheme:
    Atom   Type   All Primitives // Shells:
   ------ ------ --------------------------
       1     O     6s 3p // 2s 1p 
       2     H     3s // 1s 
       3     H     3s // 1s 

  ==> AO Basis Functions <==

    [ STO-3G ]
    spherical
    ****
    O   1
    S   3 1.00
                       130.70932000           0.15432897
                        23.80886100           0.53532814
                         6.44360830           0.44463454
    S   3 1.00
                         5.03315130          -0.09996723
                         1.16959610           0.39951283
                         0.38038900           0.70011547
    P   3 1.00
                         5.03315130           0.15591627
                         1.16959610           0.60768372
                         0.38038900           0.39195739
    ****
    H   2
    S   3 1.00
                         3.42525091           0.15432897
                         0.62391373           0.53532814
                         0.16885540           0.44463454
    ****
    H   3
    S   3 1.00
                         3.42525091           0.15432897
                         0.62391373           0.53532814
                         0.16885540           0.44463454
    ****



        *******************************************************
        *                                                     *
        *                                                     *
        *    Polaritonic RHF                                  *
        *                                                     *
        *                                                     *
        *******************************************************
    Molecular point group: c1
    Full point group: C2v

    Geometry (in Angstrom), charge = 0, multiplicity = 1:

       Center              X                  Y                   Z               Mass       
    ------------   -----------------  -----------------  -----------------  -----------------
         O            0.000000000000    -0.068516219320     0.000000000000    15.994914619570
         H           -0.790689573744     0.543701060715     0.000000000000     1.007825032230
         H            0.790689573744     0.543701060715     0.000000000000     1.007825032230

  -AO BASIS SET INFORMATION:
    Name                   = STO-3G
    Blend                  = STO-3G
    Total number of shells = 5
    Number of primitives   = 15
    Number of AO           = 7
    Number of SO           = 7
    Maximum AM             = 1
    Spherical Harmonics    = TRUE

  -Contraction Scheme:
    Atom   Type   All Primitives // Shells:
   ------ ------ --------------------------
       1     O     6s 3p // 2s 1p 
       2     H     3s // 1s 
       3     H     3s // 1s 

  ==> AO Basis Functions <==

    [ STO-3G ]
    spherical
    ****
    O   1
    S   3 1.00
                       130.70932000           0.15432897
                        23.80886100           0.53532814
                         6.44360830           0.44463454
    S   3 1.00
                         5.03315130          -0.09996723
                         1.16959610           0.39951283
                         0.38038900           0.70011547
    P   3 1.00
                         5.03315130           0.15591627
                         1.16959610           0.60768372
                         0.38038900           0.39195739
    ****
    H   2
    S   3 1.00
                         3.42525091           0.15432897
                         0.62391373           0.53532814
                         0.16885540           0.44463454
    ****
    H   3
    S   3 1.00
                         3.42525091           0.15432897
                         0.62391373           0.53532814
                         0.16885540           0.44463454
    ****


    No. basis functions:                7
    cholesky_tolerance:             1.000000e-12
    No. electrons:                     10
    e_convergence:              1.000e-10
    d_convergence:              1.000e-10
    maxiter:                           50



    Guess energy:      -74.964498328625

    ==>  Begin SCF Iterations <==

     Iter               energy                   dE          RMS |[F,P]| 
        0     -74.960093626806       0.004404701819       0.000149269121
        1     -74.960093981817      -0.000000355010       0.000050659259
        2     -74.960094635482      -0.000000653665       0.000019307678
        3     -74.960094810600      -0.000000175118       0.000003400521
        4     -74.960094961659      -0.000000151060       0.000000572020
        5     -74.960094985721      -0.000000024061       0.000000002510
        6     -74.960094985282       0.000000000438       0.000000001208
        7     -74.960094985277       0.000000000006       0.000000002009
        8     -74.960094985281      -0.000000000004       0.000000001390
        9     -74.960094985282      -0.000000000001       0.000000000010

    SCF iterations converged!


    ==> dipole self-energy: 1/2 lambda^2 ( <mu_e^2> - <mu_e>^2 ) <==

    one-electron part;        0.007653679673
    two-electron part:       -0.003087481668
    total:                    0.004566198004


    ==> dipole integrals <== 

    <mu_x> =       0.000000000000
    <mu_y> =      -0.360411869260
    <mu_z> =       0.000000000000


    ==> dipole variance: ( <mu_e^2> - <mu_e>^2 ) <== 

    one electron (xx):       7.687949703645
    one electron (xy):      -0.000000000000
    one electron (xz):      -0.000000000000
    one electron (yy):       6.122943738128
    one electron (yz):       0.000000000000
    one electron (zz):       4.557760744680

    two electron (xx):      -3.357994331293
    two electron (xy):       0.000000000000
    two electron (xz):       0.000000000000
    two electron (yy):      -2.469985334670
    two electron (yz):      -0.000000000000
    two electron (zz):      -1.666121731551

    total (xx):              4.329955372352
    total (xy):             -0.000000000000
    total (xz):              0.000000000000
    total (yy):              3.652958403458
    total (yz):             -0.000000000000
    total (zz):              2.891639013128

    * Polaritonic RHF total energy:     -74.960094985282

 #  #
 Irrep: 1
      1:  -20.246554088337607
      2:   -1.247964265334465
      3:   -0.595042815255070
      4:   -0.447450508232258
      5:   -0.388198232428941
      6:    0.565555506279071
      7:    0.693756606220544

    Molecular point group: c1
    Full point group: C2v

    Geometry (in Angstrom), charge = 0, multiplicity = 1:

       Center              X                  Y                   Z               Mass       
    ------------   -----------------  -----------------  -----------------  -----------------
         O            0.000000000000    -0.068516219320     0.000000000000    15.994914619570
         H           -0.790689573744     0.543701060715     0.000000000000     1.007825032230
         H            0.790689573744     0.543701060715     0.000000000000     1.007825032230

  -AO BASIS SET INFORMATION:
    Name                   = STO-3G
    Blend                  = STO-3G
    Total number of shells = 5
    Number of primitives   = 15
    Number of AO           = 7
    Number of SO           = 7
[...]
                                   SCF
               by Justin Turney, Rob Parrish, Andy Simmonett
                          and Daniel G. A. Smith
                              RHF Reference
                        1 Threads,    953 MiB Core
         ---------------------------------------------------------

  ==> Geometry <==

    Molecular point group: c1
    Full point group: C2v

    Geometry (in Angstrom), charge = 0, multiplicity = 1:

       Center              X                  Y                   Z               Mass       
    ------------   -----------------  -----------------  -----------------  -----------------
         O           -0.068516219320     0.000000000000     0.000000000000    15.994914619570
         H            0.543701060715     0.000000000000    -0.790689573744     1.007825032230
         H            0.543701060715     0.000000000000     0.790689573744     1.007825032230

  Running in c1 symmetry.

  Rotational constants: A =     25.12555  B =     13.37733  C =      8.72955 [cm^-1]
  Rotational constants: A = 753245.07149  B = 401042.16706  C = 261705.25473 [MHz]
  Nuclear repulsion =    8.801465564563404

  Charge       = 0
  Multiplicity = 1
  Electrons    = 10
  Nalpha       = 5
  Nbeta        = 5

  ==> Algorithm <==

  SCF Algorithm Type is CD.
  DIIS enabled.
  MOM disabled.
  Fractional occupation disabled.
  Guess Type is SAD.
  Energy threshold   = 1.00e-10
  Density threshold  = 1.00e-10
  Integral threshold = 1.00e-12

  ==> Primary Basis <==

  Basis Set: STO-3G
    Blend: STO-3G
    Number of shells: 5
    Number of basis functions: 7
    Number of Cartesian functions: 7
    Spherical Harmonics?: true
    Max angular momentum: 1

  ==> Integral Setup <==

  ==> CDJK: Cholesky-decomposed J/K Matrices <==

    J tasked:                     Yes
    K tasked:                     Yes
    wK tasked:                     No
    OpenMP threads:                 1
    Integrals threads:              1
    Memory [MiB]:                 715
    Algorithm:                   Core
    Integral Cache:              SAVE
    Schwarz Cutoff:             1E-12
    Cholesky tolerance:      1.00E-12
    No. Cholesky vectors:          28

  Minimum eigenvalue in the overlap matrix is 3.7028400386E-01.
  Reciprocal condition number of the overlap matrix is 1.9726983142E-01.
    Using symmetric orthogonalization.

  ==> Pre-Iterations <==

  SCF Guess: Superposition of Atomic Densities via on-the-fly atomic UHF (no occupation information).

   -------------------------
    Irrep   Nso     Nmo    
   -------------------------
     A          7       7 
   -------------------------
    Total       7       7
   -------------------------

  ==> Iterations <==

                        Total Energy        Delta E     RMS |[F,P]|

   @RHF iter SAD:   -74.30946884944849   -7.43095e+01   0.00000e+00 
   @RHF iter   1:   -74.92881817101733   -6.19349e-01   3.43856e-02 DIIS/ADIIS
   @RHF iter   2:   -74.96348479981394   -3.46666e-02   5.18640e-03 DIIS/ADIIS
   @RHF iter   3:   -74.96460696614770   -1.12217e-03   1.26126e-03 DIIS/ADIIS
   @RHF iter   4:   -74.96466238340685   -5.54173e-05   4.90456e-05 DIIS
   @RHF iter   5:   -74.96466251582417   -1.32417e-07   1.69025e-05 DIIS
   @RHF iter   6:   -74.96466253910313   -2.32790e-08   2.14671e-07 DIIS
   @RHF iter   7:   -74.96466253910499   -1.86162e-12   9.12017e-10 DIIS
   @RHF iter   8:   -74.96466253910496    2.84217e-14   2.60397e-12 DIIS
  Energy and wave function converged.


  ==> Post-Iterations <==

    Orbital Energies [Eh]
    ---------------------

    Doubly Occupied:                                                      

       1A    -20.247270     2A     -1.247775     3A     -0.595851  
       4A     -0.447884     5A     -0.388956  

    Virtual:                                                              

       6A      0.564152     7A      0.693007  

    Final Occupation by Irrep:
              A 
    DOCC [     5 ]
    NA   [     5 ]
    NB   [     5 ]

  @RHF Final Energy:   -74.96466253910496

   => Energetics <=

    Nuclear Repulsion Energy =              8.8014655645634043
    One-Electron Energy =                -121.6767825481755665
    Two-Electron Energy =                  37.9106544445072089
    Total Energy =                        -74.9646625391049497

Computation Completed


Properties will be evaluated at   0.000000,   0.000000,   0.000000 [a0]

Properties computed using the SCF density matrix


 Multipole Moments:

 ------------------------------------------------------------------------------------
     Multipole            Electronic (a.u.)      Nuclear  (a.u.)        Total (a.u.)
 ------------------------------------------------------------------------------------

 L = 1.  Multiply by 2.5417464519 to convert [e a0] to [Debye]
 Dipole X            :         -0.3624478            1.0190771            0.6566293
 Dipole Y            :          0.0000000            0.0000000            0.0000000
 Dipole Z            :          0.0000000            0.0000000            0.0000000
 Magnitude           :                                                    0.6566293

 ------------------------------------------------------------------------------------

*** tstop() called on Alberts-MacBook-Pro.local at Sat Jun 20 15:54:48 2026
Module time:
	user time   =       0.07 seconds =       0.00 minutes
	system time =       0.00 seconds =       0.00 minutes
	total time  =          1 seconds =       0.02 minutes
Total time:
	user time   =       9.00 seconds =       0.15 minutes
	system time =       0.52 seconds =       0.01 minutes
	total time  =         10 seconds =       0.17 minutes
   => Loading Basis Set <=

    Name: (STO-3G AUX)
    Role: JKFIT
    Keyword: DF_BASIS_SCF
    atoms 1   entry O          line   318 file /Users/deprince/software/psi4/v1.10/psi4/install/share/psi4/basis/def2-universal-jkfit.gbs 
    atoms 2-3 entry H          line    18 file /Users/deprince/software/psi4/v1.10/psi4/install/share/psi4/basis/def2-universal-jkfit.gbs 

   => Loading Basis Set <=

    Name: (STO-3G AUX)
    Role: RIFIT
    Keyword: DF_BASIS_CC
    atoms 1   entry O          line   233 file /Users/deprince/software/psi4/v1.10/psi4/install/share/psi4/basis/def2-svp-ri.gbs 
    atoms 2-3 entry H          line    22 file /Users/deprince/software/psi4/v1.10/psi4/install/share/psi4/basis/def2-svp-ri.gbs 


Reading options from the HILBERT block
Calling plugin hilbert.so.


Plugins that use gradients: set Da, Db, and Lagrangian for gradient theory on the wavefunction. The old way of passing these will stop working as soon as 1.8.    Molecular point group: c1
    Full point group: C2v

    Geometry (in Angstrom), charge = 0, multiplicity = 1:

       Center              X                  Y                   Z               Mass       
    ------------   -----------------  -----------------  -----------------  -----------------
         O           -0.068516219320     0.000000000000     0.000000000000    15.994914619570
         H            0.543701060715     0.000000000000    -0.790689573744     1.007825032230
         H            0.543701060715     0.000000000000     0.790689573744     1.007825032230

  -AO BASIS SET INFORMATION:
    Name                   = STO-3G
    Blend                  = STO-3G
    Total number of shells = 5
    Number of primitives   = 15
    Number of AO           = 7
    Number of SO           = 7
    Maximum AM             = 1
    Spherical Harmonics    = TRUE

  -Contraction Scheme:
    Atom   Type   All Primitives // Shells:
   ------ ------ --------------------------
       1     O     6s 3p // 2s 1p 
       2     H     3s // 1s 
       3     H     3s // 1s 

  ==> AO Basis Functions <==

    [ STO-3G ]
    spherical
    ****
    O   1
    S   3 1.00
                       130.70932000           0.15432897
                        23.80886100           0.53532814
                         6.44360830           0.44463454
    S   3 1.00
                         5.03315130          -0.09996723
                         1.16959610           0.39951283
                         0.38038900           0.70011547
    P   3 1.00
                         5.03315130           0.15591627
                         1.16959610           0.60768372
                         0.38038900           0.39195739
    ****
    H   2
    S   3 1.00
                         3.42525091           0.15432897
                         0.62391373           0.53532814
                         0.16885540           0.44463454
    ****
    H   3
    S   3 1.00
                         3.42525091           0.15432897
                         0.62391373           0.53532814
                         0.16885540           0.44463454
    ****



        *******************************************************
        *                                                     *
        *                                                     *
        *    Polaritonic RHF                                  *
        *                                                     *
        *                                                     *
        *******************************************************
    Molecular point group: c1
    Full point group: C2v

    Geometry (in Angstrom), charge = 0, multiplicity = 1:

       Center              X                  Y                   Z               Mass       
    ------------   -----------------  -----------------  -----------------  -----------------
         O           -0.068516219320     0.000000000000     0.000000000000    15.994914619570
         H            0.543701060715     0.000000000000    -0.790689573744     1.007825032230
         H            0.543701060715     0.000000000000     0.790689573744     1.007825032230

  -AO BASIS SET INFORMATION:
    Name                   = STO-3G
    Blend                  = STO-3G
    Total number of shells = 5
    Number of primitives   = 15
    Number of AO           = 7
    Number of SO           = 7
    Maximum AM             = 1
    Spherical Harmonics    = TRUE

  -Contraction Scheme:
    Atom   Type   All Primitives // Shells:
   ------ ------ --------------------------
       1     O     6s 3p // 2s 1p 
       2     H     3s // 1s 
       3     H     3s // 1s 

  ==> AO Basis Functions <==

    [ STO-3G ]
    spherical
    ****
    O   1
    S   3 1.00
                       130.70932000           0.15432897
                        23.80886100           0.53532814
                         6.44360830           0.44463454
    S   3 1.00
                         5.03315130          -0.09996723
                         1.16959610           0.39951283
                         0.38038900           0.70011547
    P   3 1.00
                         5.03315130           0.15591627
                         1.16959610           0.60768372
                         0.38038900           0.39195739
    ****
    H   2
    S   3 1.00
                         3.42525091           0.15432897
                         0.62391373           0.53532814
                         0.16885540           0.44463454
    ****
    H   3
    S   3 1.00
                         3.42525091           0.15432897
                         0.62391373           0.53532814
                         0.16885540           0.44463454
    ****


    No. basis functions:                7
    cholesky_tolerance:             1.000000e-12
    No. electrons:                     10
    e_convergence:              1.000e-10
    d_convergence:              1.000e-10
    maxiter:                           50



    Guess energy:      -74.964498328625

    ==>  Begin SCF Iterations <==

     Iter               energy                   dE          RMS |[F,P]| 
        0     -74.960093626806       0.004404701819       0.000149269121
        1     -74.960093981817      -0.000000355010       0.000050659259
        2     -74.960094635482      -0.000000653665       0.000019307678
        3     -74.960094810600      -0.000000175118       0.000003400521
        4     -74.960094961659      -0.000000151060       0.000000572020
        5     -74.960094985721      -0.000000024061       0.000000002510
        6     -74.960094985283       0.000000000438       0.000000001208
        7     -74.960094985277       0.000000000006       0.000000002009
        8     -74.960094985282      -0.000000000005       0.000000000010

    SCF iterations converged!


    ==> dipole self-energy: 1/2 lambda^2 ( <mu_e^2> - <mu_e>^2 ) <==

    one-electron part;        0.007653679673
    two-electron part:       -0.003087481668
    total:                    0.004566198004


    ==> dipole integrals <== 

    <mu_x> =      -0.360411869259
    <mu_y> =       0.000000000000
    <mu_z> =       0.000000000000


    ==> dipole variance: ( <mu_e^2> - <mu_e>^2 ) <== 

    one electron (xx):       6.122943738122
    one electron (xy):      -0.000000000000
    one electron (xz):      -0.000000000000
    one electron (yy):       4.557760744677
    one electron (yz):       0.000000000000
    one electron (zz):       7.687949703633

    two electron (xx):      -2.469985334671
    two electron (xy):       0.000000000000
    two electron (xz):       0.000000000000
    two electron (yy):      -1.666121731552
    two electron (yz):      -0.000000000000
    two electron (zz):      -3.357994331271

    total (xx):              3.652958403451
    total (xy):             -0.000000000000
    total (xz):             -0.000000000000
    total (yy):              2.891639013125
    total (yz):              0.000000000000
    total (zz):              4.329955372362

    * Polaritonic RHF total energy:     -74.960094985282

 #  #
 Irrep: 1
      1:  -20.246554088315424
      2:   -1.247964265318913
      3:   -0.595042815262023
      4:   -0.447450508214772
      5:   -0.388198232417866
      6:    0.565555506328033
      7:    0.693756606204638

    Molecular point group: c1
    Full point group: C2v

    Geometry (in Angstrom), charge = 0, multiplicity = 1:

       Center              X                  Y                   Z               Mass       
    ------------   -----------------  -----------------  -----------------  -----------------
         O           -0.068516219320     0.000000000000     0.000000000000    15.994914619570
         H            0.543701060715     0.000000000000    -0.790689573744     1.007825032230
         H            0.543701060715     0.000000000000     0.790689573744     1.007825032230

  -AO BASIS SET INFORMATION:
    Name                   = STO-3G
    Blend                  = STO-3G
    Total number of shells = 5
    Number of primitives   = 15
    Number of AO           = 7
    Number of SO           = 7
    Maximum AM             = 1
    Spherical Harmonics    = TRUE

  -Contraction Scheme:
    Atom   Type   All Primitives // Shells:
   ------ ------ --------------------------
       1     O     6s 3p // 2s 1p 
       2     H     3s // 1s 
       3     H     3s // 1s 

  ==> AO Basis Functions <==

    [ STO-3G ]
    spherical
    ****
    O   1
    S   3 1.00
                       130.70932000           0.15432897
                        23.80886100           0.53532814
                         6.44360830           0.44463454
    S   3 1.00
                         5.03315130          -0.09996723
                         1.16959610           0.39951283
                         0.38038900           0.70011547
    P   3 1.00
                         5.03315130           0.15591627
                         1.16959610           0.60768372
                         0.38038900           0.39195739
    ****
    H   2
    S   3 1.00
                         3.42525091           0.15432897
                         0.62391373           0.53532814
                         0.16885540           0.44463454
    ****
    H   3
    S   3 1.00
                         3.42525091           0.15432897
                         0.62391373           0.53532814
                         0.16885540           0.44463454
    ****



        *******************************************************
        *                                                     *
        *                      -----------                    *
        *                       CC CAVITY                     *
        *                      -----------                    *
        *                                                     *
        *******************************************************



    madness threads:                    1
    omp threads:                        1
    No. basis functions:                7
    No. auxiliary basis functions:     28
    No. alpha electrons:                5
    No. alpha virtuals:                 2
    No. beta electrons:                 5
    No. beta virtuals:                  2
    e_convergence:              1.000e-10
    r_convergence:              1.000e-10
    maxiter:                           50


  Included amplitudes:
          T0,1      
      T1  T1,1      
      T2  T2,1      

  Dimension of CC amplitudes: 641

  V_cav (nm3) = 0.74485760
  lambda      = x: 0.05000000 y: 0.00000000 z: 0.00000000
  hw          = 0.10000000
  electric dipole moments: x: -0.36041187 y: 0.00000000 z: 0.00000000
  average electric dipole self-energy: 0.00016237
  Using relaxed orbitals.

    ==>  Begin QED-CCSD-21 iterations <==    

 Iter           energy              dE            |dT|  |   |dT1|  |dT2| |dT0,1||dT1,1||dT2,1|
    0    0.000000000000  0.000000000000  0.135205062215 |   1e-10  1e-01  1e-12  1e-02  0e+00
    1   -0.039647452788 -0.039647452788  0.038172943771 |   1e-02  4e-02  6e-13  1e-03  1e-03
    2   -0.050183162533 -0.010535709745  0.015790237240 |   6e-03  1e-02  3e-03  5e-04  5e-04
    3   -0.055135058051 -0.004951895518  0.003591465609 |   2e-03  3e-03  3e-04  2e-04  1e-04
    4   -0.055569371427 -0.000434313376  0.000820644066 |   6e-04  5e-04  4e-05  6e-05  5e-05
    5   -0.055594335369 -0.000024963942  0.000222300852 |   2e-04  1e-04  4e-05  2e-05  1e-05
    6   -0.055588710196  0.000005625173  0.000015254104 |   7e-06  1e-05  1e-06  3e-06  2e-06
    7   -0.055588612953  0.000000097243  0.000002945637 |   1e-06  3e-06  3e-07  6e-07  6e-07
    8   -0.055588533082  0.000000079871  0.000000589642 |   1e-07  5e-07  3e-07  1e-07  1e-07
    9   -0.055588541610 -0.000000008528  0.000000570057 |   1e-07  5e-07  3e-07  1e-07  1e-07
   10   -0.055588557968 -0.000000016357  0.000000209762 |   6e-08  2e-07  9e-08  4e-08  4e-08
   11   -0.055588563176 -0.000000005208  0.000000028266 |   1e-08  2e-08  8e-09  2e-09  4e-09
   12   -0.055588562336  0.000000000840  0.000000004262 |   5e-10  4e-09  2e-09  4e-10  1e-09
   13   -0.055588562269  0.000000000067  0.000000000981 |   5e-10  8e-10  2e-10  1e-10  3e-10
   14   -0.055588562393 -0.000000000124  0.000000000346 |   2e-10  2e-10  1e-10  1e-11  9e-11
   15   -0.055588562440 -0.000000000048  0.000000000046 |   3e-11  3e-11  8e-12  4e-12  9e-12

    QED-CCSD-21 iterations converged!

    * QED-CCSD-21 total energy:     -75.015683547721


   Norms of cluster amplitudes:
   ------------------------------
     T1:  0.023170051683 |  1.55 %
     T2:  0.183925734698 | 97.96 %
   T0,1:  0.005360584650 |  0.08 %
   T1,1:  0.011600869056 |  0.39 %
   T2,1:  0.002190561402 |  0.01 %
   ------------------------------
    Total:  0.185832294742

  ==> Time spent in CC iterations <==  
                    Total: 3.870 s
      Residuals Equations: total =    1.429 s | average =  84.057 ms
      Transform Integrals: total =    2.394 s | average = 140.801 ms
        Update Amplitudes: total = 183.879 ms | average =   5.408 ms

    QED-CCSD-21 (TA) total energy (x-pol).................................................PASSED

    Psi4 stopped on: Saturday, 20 June 2026 03:54PM
    Psi4 wall time for execution: 0:00:13.39

*** Psi4 exiting successfully. Buy a developer a beer!
