
    -----------------------------------------------------------------------
          Psi4: An Open-Source Ab Initio Electronic Structure Package
                               Psi4 1.9.1 

                         Git: Rev {HEAD} f53cdd7 dirty


    D. G. A. Smith, L. A. Burns, A. C. Simmonett, R. M. Parrish,
    M. C. Schieber, R. Galvelis, P. Kraus, H. Kruse, R. Di Remigio,
    A. Alenaizan, A. M. James, S. Lehtola, J. P. Misiewicz, M. Scheurer,
    R. A. Shaw, J. B. Schriber, Y. Xie, Z. L. Glick, D. A. Sirianni,
    J. S. O'Brien, J. M. Waldrop, A. Kumar, E. G. Hohenstein,
    B. P. Pritchard, B. R. Brooks, H. F. Schaefer III, A. Yu. Sokolov,
    K. Patkowski, A. E. DePrince III, U. Bozkaya, R. A. King,
    F. A. Evangelista, J. M. Turney, T. D. Crawford, C. D. Sherrill,
    J. Chem. Phys. 152(18) 184108 (2020). https://doi.org/10.1063/5.0006002

                            Additional Code Authors
    E. T. Seidl, C. L. Janssen, E. F. Valeev, M. L. Leininger,
    J. F. Gonthier, R. M. Richard, H. R. McAlexander, M. Saitow, X. Wang,
    P. Verma, M. H. Lechner, A. Jiang, S. Behnle, A. G. Heide,
    M. F. Herbst, and D. L. Poole

             Previous Authors, Complete List of Code Contributors,
                       and Citations for Specific Modules
    https://github.com/psi4/psi4/blob/master/codemeta.json
    https://github.com/psi4/psi4/graphs/contributors
    http://psicode.org/psi4manual/master/introduction.html#citing-psifour

    -----------------------------------------------------------------------


    Psi4 started on: Monday, 01 July 2024 01:31PM

    Process ID: 65459
    Host:       wc-dhcp35d189.employee-secure.wireless.fsu.edu
    PSIDATADIR: /Users/deprince/software/psi4/v1.9.1/psi4/install/share/psi4
    Memory:     500.0 MiB
    Threads:    1
    
  ==> Input File <==

--------------------------------------------------------------------------
# PYTHONPATH must include directory above plugin directory.
#     Define either externally or here, then import plugin.
sys.path.insert(0, '../../..')
import hilbert

molecule h2 {
         O            0.000000000000     0.000000000000    -0.068516219320    
         H            0.000000000000    -0.790689573744     0.543701060715    
         H            0.000000000000     0.790689573744     0.543701060715    
no_reorient
nocom
symmetry c1
}

set {
  basis sto-3g 
  scf_type df 
  e_convergence 1e-10
  d_convergence 1e-10 
} 

# frequency: 2.0 eV
w = 0.07349864501573

# lambda: 0.05
# coupling g = 0.05 / sqrt(2*w)
g = 0.05 / np.sqrt(2.0 * w)

set { 
  maxiter 500
  n_photon_states          2
  cavity_frequency         [0.0, 0.0, $w]
  cavity_coupling_strength [0.0, 0.0, $g]
}

set points 3
set reference uks
set dft_spherical_points 590
set {
    qed_dft_functional 'pbe'
}
g1 = np.asarray(gradient('qed-dft',dertype=0))
g2 = np.asarray(gradient('qed-dft',dertype=1))
diff = g2 - g1


#print('||g-g||',np.linalg.norm(diff))
compare_values(0.0, np.linalg.norm(diff), 5, "QED-DFT numerical versus analytic energy gradient") # TEST

--------------------------------------------------------------------------

Scratch directory: /tmp/

         ----------------------------------------------------------
                                   FINDIF
                     R. A. King and Jonathon Misiewicz
         ----------------------------------------------------------

  Using finite-differences of energies to determine gradients.
    Generating geometries for use with 3-point formula.
    Displacement size will be 5.00e-03.
    Number of atoms is 3.
    Number of symmetric SALCs is 3.
    Translations projected? 1. Rotations projected? 1.
    Number of geometries (including reference) is 7.
 7 displacements needed ...

  //>>>>>>>>>>>>>>>>>>>>>>>>>>>>>>>>>>>//
  //    FiniteDifference Computations  //
  //<<<<<<<<<<<<<<<<<<<<<<<<<<<<<<<<<<<//


    -----------------------------------------------------------------------
          Psi4: An Open-Source Ab Initio Electronic Structure Package
                               Psi4 1.9.1 

                         Git: Rev {HEAD} f53cdd7 dirty


    D. G. A. Smith, L. A. Burns, A. C. Simmonett, R. M. Parrish,
    M. C. Schieber, R. Galvelis, P. Kraus, H. Kruse, R. Di Remigio,
    A. Alenaizan, A. M. James, S. Lehtola, J. P. Misiewicz, M. Scheurer,
    R. A. Shaw, J. B. Schriber, Y. Xie, Z. L. Glick, D. A. Sirianni,
    J. S. O'Brien, J. M. Waldrop, A. Kumar, E. G. Hohenstein,
    B. P. Pritchard, B. R. Brooks, H. F. Schaefer III, A. Yu. Sokolov,
    K. Patkowski, A. E. DePrince III, U. Bozkaya, R. A. King,
    F. A. Evangelista, J. M. Turney, T. D. Crawford, C. D. Sherrill,
    J. Chem. Phys. 152(18) 184108 (2020). https://doi.org/10.1063/5.0006002

                            Additional Code Authors
    E. T. Seidl, C. L. Janssen, E. F. Valeev, M. L. Leininger,
    J. F. Gonthier, R. M. Richard, H. R. McAlexander, M. Saitow, X. Wang,
    P. Verma, M. H. Lechner, A. Jiang, S. Behnle, A. G. Heide,
    M. F. Herbst, and D. L. Poole

             Previous Authors, Complete List of Code Contributors,
                       and Citations for Specific Modules
    https://github.com/psi4/psi4/blob/master/codemeta.json
    https://github.com/psi4/psi4/graphs/contributors
    http://psicode.org/psi4manual/master/introduction.html#citing-psifour

    -----------------------------------------------------------------------


    Psi4 started on: Monday, 01 July 2024 01:31PM

    Process ID: 65459
    Host:       wc-dhcp35d189.employee-secure.wireless.fsu.edu
    PSIDATADIR: /Users/deprince/software/psi4/v1.9.1/psi4/install/share/psi4
    Memory:     500.0 MiB
    Threads:    1
    
  ==> Input QCSchema <==

--------------------------------------------------------------------------
{'driver': 'energy',
 'extras': {'psiapi': True, 'wfn_qcvars_only': True},
 'id': None,
 'keywords': {'CAVITY_COUPLING_STRENGTH': [0.0, 0.0, 0.13041133482178593],
              'CAVITY_FREQUENCY': [0.0, 0.0, 0.07349864501573],
              'DFT_SPHERICAL_POINTS': 590,
              'D_CONVERGENCE': 1e-10,
              'E_CONVERGENCE': 1e-10,
              'MAXITER': 500,
              'N_PHOTON_STATES': 2,
              'PARENT_SYMMETRY': 'C1',
              'POINTS': 3,
              'QED_DFT_FUNCTIONAL': 'PBE',
              'REFERENCE': 'UKS',
              'SCF_TYPE': 'DF',
              'function_kwargs': {}},
 'model': {'basis': 'sto-3g', 'method': 'qed-dft'},
 'molecule': {'atom_labels': ['', '', ''],
              'atomic_numbers': [8, 1, 1],
              'extras': {},
              'fix_com': True,
              'fix_orientation': True,
              'fix_symmetry': 'c1',
              'fragment_charges': [0.0],
              'fragment_multiplicities': [1],
              'fragments': [[0, 1, 2]],
              'geometry': [0.0, 0.0, -0.1294768896666024, 0.0, -1.4941867446311508, 1.0274460988722685, 0.0,
                           1.4941867446311508, 1.0274460988722685],
              'mass_numbers': [16, 1, 1],
              'masses': [15.99491461957, 1.00782503223, 1.00782503223],
              'molecular_charge': 0.0,
              'molecular_multiplicity': 1,
              'name': 'h2',
              'provenance': {'creator': 'QCElemental',
                             'routine': 'qcelemental.molparse.from_string',
                             'version': '0.27.1'},
              'real': [True, True, True],
              'schema_name': 'qcschema_molecule',
              'schema_version': 2,
              'symbols': ['O', 'H', 'H'],
              'validated': True},
 'protocols': {'stdout': True},
 'provenance': {'creator': 'QCElemental', 'routine': 'qcelemental.models.results', 'version': '0.27.1'},
 'schema_name': 'qcschema_input',
 'schema_version': 1}
--------------------------------------------------------------------------

Scratch directory: /tmp/

Scratch directory: /tmp/
   => Libint2 <=

    Primary   basis highest AM E, G, H:  5, 4, 3
    Auxiliary basis highest AM E, G, H:  6, 5, 4
    Onebody   basis highest AM E, G, H:  6, 5, 4
    Solid Harmonics ordering:            Gaussian

*** tstart() called on wc-dhcp35d189.employee-secure.wireless.fsu.edu
*** at Mon Jul  1 13:31:26 2024

   => Loading Basis Set <=

    Name: STO-3G
    Role: ORBITAL
    Keyword: BASIS
    atoms 1   entry O          line    81 file /Users/deprince/software/psi4/v1.9.1/psi4/install/share/psi4/basis/sto-3g.gbs 
    atoms 2-3 entry H          line    19 file /Users/deprince/software/psi4/v1.9.1/psi4/install/share/psi4/basis/sto-3g.gbs 


         ---------------------------------------------------------
                                   SCF
               by Justin Turney, Rob Parrish, Andy Simmonett
                          and Daniel G. A. Smith
                              UKS Reference
                        1 Threads,    500 MiB Core
         ---------------------------------------------------------

  ==> Geometry <==

    Molecular point group: c1
    Full point group: C2v

    Geometry (in Bohr), charge = 0, multiplicity = 1:

       Center              X                  Y                   Z               Mass       
    ------------   -----------------  -----------------  -----------------  -----------------
         O            0.000000000000     0.000000000000    -0.129476889667    15.994914619570
         H            0.000000000000    -1.494186744631     1.027446098872     1.007825032230
         H            0.000000000000     1.494186744631     1.027446098872     1.007825032230

  Running in c1 symmetry.

  Rotational constants: A =     25.12555  B =     13.37733  C =      8.72955 [cm^-1]
  Rotational constants: A = 753245.07149  B = 401042.16706  C = 261705.25473 [MHz]
  Nuclear repulsion =    8.801465564563406

  Charge       = 0
  Multiplicity = 1
  Electrons    = 10
  Nalpha       = 5
  Nbeta        = 5

  ==> Algorithm <==

  SCF Algorithm Type is DF.
  DIIS enabled.
  MOM disabled.
  Fractional occupation disabled.
  Guess Type is SAD.
  Energy threshold   = 1.00e-10
  Density threshold  = 1.00e-10
  Integral threshold = 1.00e-12

  ==> Primary Basis <==

  Basis Set: STO-3G
    Blend: STO-3G
    Number of shells: 5
    Number of basis functions: 7
    Number of Cartesian functions: 7
    Spherical Harmonics?: true
    Max angular momentum: 1

  ==> DFT Potential <==

   => LibXC <=

    Version 6.2.2
    S. Lehtola, C. Steigemann, M. J.T. Oliveira, and M. A.L. Marques.,  SoftwareX 7, 1–5 (2018) (10.1016/j.softx.2017.11.002)

   => Composite Functional: PBE <= 

    PBE GGA Exchange-Correlation Functional

    J.P. Perdew et. al., Phys. Rev. Lett., 77(18), 3865-3868, 1996


    Deriv               =              1
    GGA                 =           TRUE
    Meta                =          FALSE

    Exchange Hybrid     =          FALSE
    MP2 Hybrid          =          FALSE

   => Exchange Functionals <=

    1.0000     XC_GGA_X_PBE

   => Correlation Functionals <=

    1.0000     XC_GGA_C_PBE

   => LibXC Density Thresholds  <==

    XC_GGA_C_PBE:  1.00E-12 
    XC_GGA_X_PBE:  1.00E-15 

   => Molecular Quadrature <=

    Radial Scheme          =       TREUTLER
    Pruning Scheme         =           NONE
    Nuclear Scheme         =       TREUTLER

    Blocking Scheme        =         OCTREE
    BS radius alpha        =              1
    Pruning alpha          =              1
    Radial Points          =             75
    Spherical Points       =            590
    Total Points           =         128485
    Total Blocks           =           1016
    Max Points             =            256
    Max Functions          =              7
    Weights Tolerance      =       1.00E-15

   => Loading Basis Set <=

    Name: (STO-3G AUX)
    Role: JKFIT
    Keyword: DF_BASIS_SCF
    atoms 1   entry O          line   318 file /Users/deprince/software/psi4/v1.9.1/psi4/install/share/psi4/basis/def2-universal-jkfit.gbs 
    atoms 2-3 entry H          line    18 file /Users/deprince/software/psi4/v1.9.1/psi4/install/share/psi4/basis/def2-universal-jkfit.gbs 

  ==> Integral Setup <==

  ==> DiskDFJK: Density-Fitted J/K Matrices <==

    J tasked:                  Yes
    K tasked:                   No
    wK tasked:                  No
    OpenMP threads:              1
    Integrals threads:           1
    Memory [MiB]:              348
    Algorithm:                Core
    Integral Cache:           SAVE
    Schwarz Cutoff:          1E-12
    Fitting Condition:       1E-10

   => Auxiliary Basis Set <=

  Basis Set: (STO-3G AUX)
    Blend: DEF2-UNIVERSAL-JKFIT
    Number of shells: 37
    Number of basis functions: 113
    Number of Cartesian functions: 133
    Spherical Harmonics?: true
    Max angular momentum: 4

  Cached 100.0% of DFT collocation blocks in 0.026 [GiB].

  Minimum eigenvalue in the overlap matrix is 3.7028400386E-01.
  Reciprocal condition number of the overlap matrix is 1.9726983142E-01.
    Using symmetric orthogonalization.

  ==> Pre-Iterations <==

  SCF Guess: Superposition of Atomic Densities via on-the-fly atomic UHF (no occupation information).

   -------------------------
    Irrep   Nso     Nmo    
   -------------------------
     A          7       7 
   -------------------------
    Total       7       7
   -------------------------

  ==> Iterations <==

                           Total Energy        Delta E     RMS |[F,P]|

   @DF-UKS iter SAD:   -74.82736076004011   -7.48274e+01   0.00000e+00 
   @DF-UKS iter   1:   -75.21663658264096   -3.89276e-01   2.19423e-02 DIIS/ADIIS
   @DF-UKS iter   2:   -75.21261015063153    4.02643e-03   2.55210e-02 DIIS/ADIIS
   @DF-UKS iter   3:   -75.23445557318303   -2.18454e-02   3.41395e-04 DIIS/ADIIS
   @DF-UKS iter   4:   -75.23445986207614   -4.28889e-06   1.86086e-05 DIIS
   @DF-UKS iter   5:   -75.23445987751371   -1.54376e-08   4.51912e-07 DIIS
   @DF-UKS iter   6:   -75.23445987752157   -7.85860e-12   9.54653e-10 DIIS
   @DF-UKS iter   7:   -75.23445987752154    2.84217e-14   1.23387e-12 DIIS
  Energy and wave function converged.


  ==> Post-Iterations <==

   Electrons on quadrature grid:
      Nalpha   =    4.9999999892 ; deviation = -1.082e-08
      Nbeta    =    4.9999999892 ; deviation = -1.082e-08
      Ntotal   =    9.9999999784 ; deviation = -2.163e-08 

   @Spin Contamination Metric:   7.105427358E-15
   @S^2 Expected:                0.000000000E+00
   @S^2 Observed:                7.105427358E-15
   @S   Expected:                0.000000000E+00
   @S   Observed:                0.000000000E+00

    Orbital Energies [Eh]
    ---------------------

    Alpha Occupied:                                                       

       1A    -18.449577     2A     -0.823944     3A     -0.373373  
       4A     -0.166443     5A     -0.063691  

    Alpha Virtual:                                                        

       6A      0.273448     7A      0.377222  

    Beta Occupied:                                                        

       1A    -18.449577     2A     -0.823944     3A     -0.373373  
       4A     -0.166443     5A     -0.063691  

    Beta Virtual:                                                         

       6A      0.273448     7A      0.377222  

    Final Occupation by Irrep:
              A 
    DOCC [     5 ]
    SOCC [     0 ]
    NA   [     5 ]
    NB   [     5 ]

  @DF-UKS Final Energy:   -75.23445987752154

   => Energetics <=

    Nuclear Repulsion Energy =              8.8014655645634061
    One-Electron Energy =                -121.6599724527298747
    Two-Electron Energy =                  46.9576381731632253
    DFT Exchange-Correlation Energy =      -9.3335911625182959
    Empirical Dispersion Energy =           0.0000000000000000
    VV10 Nonlocal Energy =                  0.0000000000000000
    Total Energy =                        -75.2344598775215445

  UHF NO Occupations:
  HONO-2 :    3  A 2.0000000
  HONO-1 :    4  A 2.0000000
  HONO-0 :    5  A 2.0000000
  LUNO+0 :    6  A -0.0000000
  LUNO+1 :    7  A -0.0000000


Computation Completed


Properties will be evaluated at   0.000000,   0.000000,   0.000000 [a0]

Properties computed using the SCF density matrix


 Multipole Moments:

 ------------------------------------------------------------------------------------
     Multipole            Electronic (a.u.)      Nuclear  (a.u.)        Total (a.u.)
 ------------------------------------------------------------------------------------

 L = 1.  Multiply by 2.5417464519 to convert [e a0] to [Debye]
 Dipole X            :          0.0000000            0.0000000            0.0000000
 Dipole Y            :         -0.0000000            0.0000000           -0.0000000
 Dipole Z            :         -0.3962941            1.0190771            0.6227830
 Magnitude           :                                                    0.6227830

 ------------------------------------------------------------------------------------

*** tstop() called on wc-dhcp35d189.employee-secure.wireless.fsu.edu at Mon Jul  1 13:31:27 2024
Module time:
	user time   =       0.72 seconds =       0.01 minutes
	system time =       0.05 seconds =       0.00 minutes
	total time  =          1 seconds =       0.02 minutes
Total time:
	user time   =       0.72 seconds =       0.01 minutes
	system time =       0.05 seconds =       0.00 minutes
	total time  =          1 seconds =       0.02 minutes
   => Loading Basis Set <=

    Name: (STO-3G AUX)
    Role: JKFIT
    Keyword: DF_BASIS_SCF
    atoms 1   entry O          line   318 file /Users/deprince/software/psi4/v1.9.1/psi4/install/share/psi4/basis/def2-universal-jkfit.gbs 
    atoms 2-3 entry H          line    18 file /Users/deprince/software/psi4/v1.9.1/psi4/install/share/psi4/basis/def2-universal-jkfit.gbs 

   => Loading Basis Set <=

    Name: (STO-3G AUX)
    Role: RIFIT
    Keyword: DF_BASIS_CC
    atoms 1   entry O          line   233 file /Users/deprince/software/psi4/v1.9.1/psi4/install/share/psi4/basis/def2-svp-ri.gbs 
    atoms 2-3 entry H          line    22 file /Users/deprince/software/psi4/v1.9.1/psi4/install/share/psi4/basis/def2-svp-ri.gbs 


Reading options from the HILBERT block
Calling plugin hilbert.so.


Plugins that use gradients: set Da, Db, and Lagrangian for gradient theory on the wavefunction. The old way of passing these will stop working as soon as 1.8.    Molecular point group: c1
    Full point group: C2v

    Geometry (in Bohr), charge = 0, multiplicity = 1:

       Center              X                  Y                   Z               Mass       
    ------------   -----------------  -----------------  -----------------  -----------------
         O            0.000000000000     0.000000000000    -0.129476889667    15.994914619570
         H            0.000000000000    -1.494186744631     1.027446098872     1.007825032230
         H            0.000000000000     1.494186744631     1.027446098872     1.007825032230

  -AO BASIS SET INFORMATION:
    Name                   = STO-3G
    Blend                  = STO-3G
    Total number of shells = 5
    Number of primitives   = 15
    Number of AO           = 7
    Number of SO           = 7
    Maximum AM             = 1
    Spherical Harmonics    = TRUE

  -Contraction Scheme:
    Atom   Type   All Primitives // Shells:
   ------ ------ --------------------------
       1     O     6s 3p // 2s 1p 
       2     H     3s // 1s 
       3     H     3s // 1s 

  ==> AO Basis Functions <==

    [ STO-3G ]
    spherical
    ****
    O   1
    S   3 1.00
                       130.70932000           0.15432897
                        23.80886100           0.53532814
                         6.44360830           0.44463454
    S   3 1.00
                         5.03315130          -0.09996723
                         1.16959610           0.39951283
                         0.38038900           0.70011547
    P   3 1.00
                         5.03315130           0.15591627
                         1.16959610           0.60768372
                         0.38038900           0.39195739
    ****
    H   2
    S   3 1.00
                         3.42525091           0.15432897
                         0.62391373           0.53532814
                         0.16885540           0.44463454
    ****
    H   3
    S   3 1.00
                         3.42525091           0.15432897
                         0.62391373           0.53532814
                         0.16885540           0.44463454
    ****



        *******************************************************
        *                                                     *
        *                                                     *
        *    Polaritonic UKS                                  *
        *                                                     *
        *                                                     *
        *******************************************************
    Molecular point group: c1
    Full point group: C2v

    Geometry (in Bohr), charge = 0, multiplicity = 1:

       Center              X                  Y                   Z               Mass       
    ------------   -----------------  -----------------  -----------------  -----------------
         O            0.000000000000     0.000000000000    -0.129476889667    15.994914619570
         H            0.000000000000    -1.494186744631     1.027446098872     1.007825032230
         H            0.000000000000     1.494186744631     1.027446098872     1.007825032230

  -AO BASIS SET INFORMATION:
    Name                   = STO-3G
    Blend                  = STO-3G
    Total number of shells = 5
    Number of primitives   = 15
    Number of AO           = 7
    Number of SO           = 7
    Maximum AM             = 1
    Spherical Harmonics    = TRUE

  -Contraction Scheme:
    Atom   Type   All Primitives // Shells:
   ------ ------ --------------------------
       1     O     6s 3p // 2s 1p 
       2     H     3s // 1s 
       3     H     3s // 1s 

  ==> AO Basis Functions <==

    [ STO-3G ]
    spherical
    ****
    O   1
    S   3 1.00
                       130.70932000           0.15432897
                        23.80886100           0.53532814
                         6.44360830           0.44463454
    S   3 1.00
                         5.03315130          -0.09996723
                         1.16959610           0.39951283
                         0.38038900           0.70011547
    P   3 1.00
                         5.03315130           0.15591627
                         1.16959610           0.60768372
                         0.38038900           0.39195739
    ****
    H   2
    S   3 1.00
                         3.42525091           0.15432897
                         0.62391373           0.53532814
                         0.16885540           0.44463454
    ****
    H   3
    S   3 1.00
                         3.42525091           0.15432897
                         0.62391373           0.53532814
                         0.16885540           0.44463454
    ****

  ==> DFT Potential <==

   => LibXC <=

    Version 6.2.2
    S. Lehtola, C. Steigemann, M. J.T. Oliveira, and M. A.L. Marques.,  SoftwareX 7, 1–5 (2018) (10.1016/j.softx.2017.11.002)

   => Composite Functional: PBE <= 

    PBE GGA Exchange-Correlation Functional

    J.P. Perdew et. al., Phys. Rev. Lett., 77(18), 3865-3868, 1996


    Deriv               =              1
    GGA                 =           TRUE
    Meta                =          FALSE

    Exchange Hybrid     =          FALSE
    MP2 Hybrid          =          FALSE

   => Exchange Functionals <=

    1.0000     XC_GGA_X_PBE

   => Correlation Functionals <=

    1.0000     XC_GGA_C_PBE

   => LibXC Density Thresholds  <==

    XC_GGA_C_PBE:  1.00E-12 
    XC_GGA_X_PBE:  1.00E-15 

   => Molecular Quadrature <=

    Radial Scheme          =       TREUTLER
    Pruning Scheme         =           NONE
    Nuclear Scheme         =       TREUTLER

    Blocking Scheme        =         OCTREE
    BS radius alpha        =              1
    Pruning alpha          =              1
    Radial Points          =             75
    Spherical Points       =            590
    Total Points           =         128485
    Total Blocks           =           1016
    Max Points             =            256
    Max Functions          =              7
    Weights Tolerance      =       1.00E-15


    No. basis functions:                7
    No. auxiliary basis functions:    113
    No. alpha electrons:                5
    No. beta electrons:                 5
    e_convergence:              1.000e-10
    d_convergence:              1.000e-10
    maxiter:                          500



    Guess energy:      -71.905353227232

    ==>  Begin SCF Iterations <==

     Iter               energy                   dE          RMS |[F,P]| 
        0     -75.229824675109      -3.324471447877       0.000159277368
        1     -75.229825688449      -0.000001013340       0.000145763492
        2     -75.229825470653       0.000000217796       0.000170573899
        3     -75.229826432683      -0.000000962030       0.000001947655
        4     -75.229826432848      -0.000000000165       0.000000043666
        5     -75.229826432848      -0.000000000000       0.000000000022

    SCF iterations converged!


    ==> dipole self-energy: 1/2 lambda^2 ( <mu_e^2> - <mu_e>^2 ) <==

    one-electron part;        0.007660100703
    two-electron part:       -0.003028410415
    total:                    0.004631690288


    ==> dipole variance: ( <mu_e^2> - <mu_e>^2 ) <== 

    one electron (xx):       4.562898930282
    one electron (xy):       0.000000000000
    one electron (xz):      -0.000000000000
    one electron (yy):       7.716846890333
    one electron (yz):       0.000000000000
    one electron (zz):       6.128080562108

    two electron (xx):      -1.672234233762
    two electron (xy):       0.000000000000
    two electron (xz):       0.000000000000
    two electron (yy):      -3.328195742400
    two electron (yz):       0.000000000000
    two electron (zz):      -2.422728331723

    total (xx):              2.890664696520
    total (xy):              0.000000000000
    total (xz):             -0.000000000000
    total (yy):              4.388651147933
    total (yz):              0.000000000000
    total (zz):              3.705352230385

    * Polaritonic UKS total energy:     -75.229826432848

 #  #
 Irrep: 1
      1:  -18.448921040821958
      2:   -0.824201709224714
      3:   -0.372582289435579
      4:   -0.165714119941416
      5:   -0.062972969893162
      6:    0.274797602791080
      7:    0.377916341854913


 #  #
 Irrep: 1
      1:  -18.448921040821958
      2:   -0.824201709224714
      3:   -0.372582289435579
      4:   -0.165714119941416
      5:   -0.062972969893162
      6:    0.274797602791080
      7:    0.377916341854913


    Psi4 stopped on: Monday, 01 July 2024 01:31PM
    Psi4 wall time for execution: 0:00:01.40


    -----------------------------------------------------------------------
          Psi4: An Open-Source Ab Initio Electronic Structure Package
                               Psi4 1.9.1 

                         Git: Rev {HEAD} f53cdd7 dirty


    D. G. A. Smith, L. A. Burns, A. C. Simmonett, R. M. Parrish,
    M. C. Schieber, R. Galvelis, P. Kraus, H. Kruse, R. Di Remigio,
    A. Alenaizan, A. M. James, S. Lehtola, J. P. Misiewicz, M. Scheurer,
    R. A. Shaw, J. B. Schriber, Y. Xie, Z. L. Glick, D. A. Sirianni,
    J. S. O'Brien, J. M. Waldrop, A. Kumar, E. G. Hohenstein,
    B. P. Pritchard, B. R. Brooks, H. F. Schaefer III, A. Yu. Sokolov,
    K. Patkowski, A. E. DePrince III, U. Bozkaya, R. A. King,
    F. A. Evangelista, J. M. Turney, T. D. Crawford, C. D. Sherrill,
    J. Chem. Phys. 152(18) 184108 (2020). https://doi.org/10.1063/5.0006002

                            Additional Code Authors
    E. T. Seidl, C. L. Janssen, E. F. Valeev, M. L. Leininger,
    J. F. Gonthier, R. M. Richard, H. R. McAlexander, M. Saitow, X. Wang,
    P. Verma, M. H. Lechner, A. Jiang, S. Behnle, A. G. Heide,
    M. F. Herbst, and D. L. Poole

             Previous Authors, Complete List of Code Contributors,
                       and Citations for Specific Modules
    https://github.com/psi4/psi4/blob/master/codemeta.json
    https://github.com/psi4/psi4/graphs/contributors
    http://psicode.org/psi4manual/master/introduction.html#citing-psifour

    -----------------------------------------------------------------------


    Psi4 started on: Monday, 01 July 2024 01:31PM

    Process ID: 65459
    Host:       wc-dhcp35d189.employee-secure.wireless.fsu.edu
    PSIDATADIR: /Users/deprince/software/psi4/v1.9.1/psi4/install/share/psi4
    Memory:     500.0 MiB
    Threads:    1
    
  ==> Input QCSchema <==

--------------------------------------------------------------------------
{'driver': 'energy',
 'extras': {'psiapi': True, 'wfn_qcvars_only': True},
 'id': None,
 'keywords': {'CAVITY_COUPLING_STRENGTH': [0.0, 0.0, 0.13041133482178593],
              'CAVITY_FREQUENCY': [0.0, 0.0, 0.07349864501573],
              'DFT_SPHERICAL_POINTS': 590,
              'D_CONVERGENCE': 1e-10,
              'E_CONVERGENCE': 1e-10,
              'MAXITER': 500,
              'N_PHOTON_STATES': 2,
              'PARENT_SYMMETRY': 'C1',
              'POINTS': 3,
              'QED_DFT_FUNCTIONAL': 'PBE',
              'REFERENCE': 'UKS',
              'SCF_TYPE': 'DF',
              'function_kwargs': {'write_orbitals': False}},
 'model': {'basis': 'sto-3g', 'method': 'qed-dft'},
 'molecule': {'atom_labels': ['', '', ''],
              'atomic_numbers': [8, 1, 1],
              'extras': {},
              'fix_com': True,
              'fix_orientation': True,
              'fix_symmetry': 'c1',
              'fragment_charges': [0.0],
              'fragment_multiplicities': [1],
              'fragments': [[0, 1, 2]],
              'geometry': [0.0, -0.00033785795355509936, -0.1294768896666024, 0.0, -1.4915057191813765,
                           1.0253702271736025, 0.0, 1.496867770080925, 1.0295219705709344],
              'mass_numbers': [16, 1, 1],
              'masses': [15.99491461957, 1.00782503223, 1.00782503223],
              'molecular_charge': 0.0,
              'molecular_multiplicity': 1,
              'name': 'h2',
              'provenance': {'creator': 'QCElemental',
                             'routine': 'qcelemental.molparse.from_string',
                             'version': '0.27.1'},
              'real': [True, True, True],
              'schema_name': 'qcschema_molecule',
              'schema_version': 2,
              'symbols': ['O', 'H', 'H'],
              'validated': True},
 'protocols': {'stdout': True},
 'provenance': {'creator': 'QCElemental', 'routine': 'qcelemental.models.results', 'version': '0.27.1'},
 'schema_name': 'qcschema_input',
 'schema_version': 1}
--------------------------------------------------------------------------

Scratch directory: /tmp/

Scratch directory: /tmp/
   => Libint2 <=

    Primary   basis highest AM E, G, H:  5, 4, 3
    Auxiliary basis highest AM E, G, H:  6, 5, 4
    Onebody   basis highest AM E, G, H:  6, 5, 4
    Solid Harmonics ordering:            Gaussian

*** tstart() called on wc-dhcp35d189.employee-secure.wireless.fsu.edu
*** at Mon Jul  1 13:31:27 2024

   => Loading Basis Set <=

    Name: STO-3G
    Role: ORBITAL
    Keyword: BASIS
    atoms 1   entry O          line    81 file /Users/deprince/software/psi4/v1.9.1/psi4/install/share/psi4/basis/sto-3g.gbs 
    atoms 2-3 entry H          line    19 file /Users/deprince/software/psi4/v1.9.1/psi4/install/share/psi4/basis/sto-3g.gbs 


         ---------------------------------------------------------
                                   SCF
               by Justin Turney, Rob Parrish, Andy Simmonett
                          and Daniel G. A. Smith
                              UKS Reference
                        1 Threads,    500 MiB Core
         ---------------------------------------------------------

  ==> Geometry <==

    Molecular point group: c1
    Full point group: Cs

    Geometry (in Bohr), charge = 0, multiplicity = 1:

       Center              X                  Y                   Z               Mass       
    ------------   -----------------  -----------------  -----------------  -----------------
         O            0.000000000000    -0.000337857954    -0.129476889667    15.994914619570
         H            0.000000000000    -1.491505719181     1.025370227174     1.007825032230
         H            0.000000000000     1.496867770081     1.029521970571     1.007825032230

  Running in c1 symmetry.

  Rotational constants: A =     25.12624  B =     13.37706  C =      8.72952 [cm^-1]
  Rotational constants: A = 753265.70068  B = 401034.09167  C = 261704.30599 [MHz]
  Nuclear repulsion =    8.801496914678173

  Charge       = 0
  Multiplicity = 1
  Electrons    = 10
  Nalpha       = 5
  Nbeta        = 5

  ==> Algorithm <==

  SCF Algorithm Type is DF.
  DIIS enabled.
  MOM disabled.
  Fractional occupation disabled.
  Guess Type is SAD.
  Energy threshold   = 1.00e-10
  Density threshold  = 1.00e-10
  Integral threshold = 1.00e-12

  ==> Primary Basis <==

  Basis Set: STO-3G
    Blend: STO-3G
    Number of shells: 5
    Number of basis functions: 7
    Number of Cartesian functions: 7
    Spherical Harmonics?: true
    Max angular momentum: 1

  ==> DFT Potential <==

   => LibXC <=

    Version 6.2.2
    S. Lehtola, C. Steigemann, M. J.T. Oliveira, and M. A.L. Marques.,  SoftwareX 7, 1–5 (2018) (10.1016/j.softx.2017.11.002)

   => Composite Functional: PBE <= 

    PBE GGA Exchange-Correlation Functional

    J.P. Perdew et. al., Phys. Rev. Lett., 77(18), 3865-3868, 1996


    Deriv               =              1
    GGA                 =           TRUE
    Meta                =          FALSE

    Exchange Hybrid     =          FALSE
    MP2 Hybrid          =          FALSE

   => Exchange Functionals <=

    1.0000     XC_GGA_X_PBE

   => Correlation Functionals <=

    1.0000     XC_GGA_C_PBE

   => LibXC Density Thresholds  <==

    XC_GGA_C_PBE:  1.00E-12 
    XC_GGA_X_PBE:  1.00E-15 

   => Molecular Quadrature <=

    Radial Scheme          =       TREUTLER
    Pruning Scheme         =           NONE
    Nuclear Scheme         =       TREUTLER

    Blocking Scheme        =         OCTREE
    BS radius alpha        =              1
    Pruning alpha          =              1
    Radial Points          =             75
    Spherical Points       =            590
    Total Points           =         128481
    Total Blocks           =           1014
    Max Points             =            256
    Max Functions          =              7
    Weights Tolerance      =       1.00E-15

   => Loading Basis Set <=

    Name: (STO-3G AUX)
    Role: JKFIT
    Keyword: DF_BASIS_SCF
    atoms 1   entry O          line   318 file /Users/deprince/software/psi4/v1.9.1/psi4/install/share/psi4/basis/def2-universal-jkfit.gbs 
    atoms 2-3 entry H          line    18 file /Users/deprince/software/psi4/v1.9.1/psi4/install/share/psi4/basis/def2-universal-jkfit.gbs 

  ==> Integral Setup <==

  ==> DiskDFJK: Density-Fitted J/K Matrices <==

    J tasked:                  Yes
    K tasked:                   No
    wK tasked:                  No
    OpenMP threads:              1
    Integrals threads:           1
    Memory [MiB]:              348
    Algorithm:                Core
    Integral Cache:           SAVE
    Schwarz Cutoff:          1E-12
    Fitting Condition:       1E-10

   => Auxiliary Basis Set <=

  Basis Set: (STO-3G AUX)
    Blend: DEF2-UNIVERSAL-JKFIT
    Number of shells: 37
    Number of basis functions: 113
    Number of Cartesian functions: 133
    Spherical Harmonics?: true
    Max angular momentum: 4

  Cached 100.0% of DFT collocation blocks in 0.026 [GiB].

  Minimum eigenvalue in the overlap matrix is 3.7025904010E-01.
  Reciprocal condition number of the overlap matrix is 1.9725612383E-01.
    Using symmetric orthogonalization.

  ==> Pre-Iterations <==

  SCF Guess: Superposition of Atomic Densities via on-the-fly atomic UHF (no occupation information).

   -------------------------
    Irrep   Nso     Nmo    
   -------------------------
     A          7       7 
   -------------------------
    Total       7       7
   -------------------------

  ==> Iterations <==

                           Total Energy        Delta E     RMS |[F,P]|

   @DF-UKS iter SAD:   -74.82736536164126   -7.48274e+01   0.00000e+00 
   @DF-UKS iter   1:   -75.21662815119709   -3.89263e-01   2.19425e-02 DIIS/ADIIS
   @DF-UKS iter   2:   -75.21260061919453    4.02753e-03   2.55216e-02 DIIS/ADIIS
   @DF-UKS iter   3:   -75.23444744085734   -2.18468e-02   3.41749e-04 DIIS/ADIIS
   @DF-UKS iter   4:   -75.23445174133005   -4.30047e-06   1.95167e-05 DIIS
   @DF-UKS iter   5:   -75.23445175826075   -1.69307e-08   2.68080e-06 DIIS
   @DF-UKS iter   6:   -75.23445175864467   -3.83920e-10   1.62969e-07 DIIS
   @DF-UKS iter   7:   -75.23445175864578   -1.10845e-12   1.43682e-09 DIIS
   @DF-UKS iter   8:   -75.23445175864580   -2.84217e-14   1.20523e-10 DIIS
   @DF-UKS iter   9:   -75.23445175864576    4.26326e-14   8.27746e-14 DIIS
  Energy and wave function converged.


  ==> Post-Iterations <==

   Electrons on quadrature grid:
      Nalpha   =    4.9999999892 ; deviation = -1.077e-08
      Nbeta    =    4.9999999892 ; deviation = -1.077e-08
      Ntotal   =    9.9999999785 ; deviation = -2.154e-08 

   @Spin Contamination Metric:  -2.664535259E-15
   @S^2 Expected:                0.000000000E+00
   @S^2 Observed:               -2.664535259E-15
   @S   Expected:                0.000000000E+00
   @S   Observed:                0.000000000E+00

    Orbital Energies [Eh]
    ---------------------

    Alpha Occupied:                                                       

       1A    -18.449578     2A     -0.823949     3A     -0.373372  
       4A     -0.166443     5A     -0.063691  

    Alpha Virtual:                                                        

       6A      0.273422     7A      0.377253  

    Beta Occupied:                                                        

       1A    -18.449578     2A     -0.823949     3A     -0.373372  
       4A     -0.166443     5A     -0.063691  

    Beta Virtual:                                                         

       6A      0.273422     7A      0.377253  

    Final Occupation by Irrep:
              A 
    DOCC [     5 ]
    SOCC [     0 ]
    NA   [     5 ]
    NB   [     5 ]

  @DF-UKS Final Energy:   -75.23445175864576

   => Energetics <=

    Nuclear Repulsion Energy =              8.8014969146781734
    One-Electron Energy =                -121.6600098578588813
    Two-Electron Energy =                  46.9576547346262032
    DFT Exchange-Correlation Energy =      -9.3335935500912512
    Empirical Dispersion Energy =           0.0000000000000000
    VV10 Nonlocal Energy =                  0.0000000000000000
    Total Energy =                        -75.2344517586457613

  UHF NO Occupations:
  HONO-2 :    3  A 2.0000000
  HONO-1 :    4  A 2.0000000
  HONO-0 :    5  A 2.0000000
  LUNO+0 :    6  A 0.0000000
  LUNO+1 :    7  A -0.0000000


Computation Completed


Properties will be evaluated at   0.000000,   0.000000,   0.000000 [a0]

Properties computed using the SCF density matrix


 Multipole Moments:

 ------------------------------------------------------------------------------------
     Multipole            Electronic (a.u.)      Nuclear  (a.u.)        Total (a.u.)
 ------------------------------------------------------------------------------------

 L = 1.  Multiply by 2.5417464519 to convert [e a0] to [Debye]
 Dipole X            :         -0.0000000            0.0000000           -0.0000000
 Dipole Y            :         -0.0036704            0.0026592           -0.0010112
 Dipole Z            :         -0.3962919            1.0190771            0.6227852
 Magnitude           :                                                    0.6227860

 ------------------------------------------------------------------------------------

*** tstop() called on wc-dhcp35d189.employee-secure.wireless.fsu.edu at Mon Jul  1 13:31:28 2024
Module time:
	user time   =       0.81 seconds =       0.01 minutes
	system time =       0.03 seconds =       0.00 minutes
	total time  =          1 seconds =       0.02 minutes
Total time:
	user time   =       2.15 seconds =       0.04 minutes
	system time =       0.10 seconds =       0.00 minutes
	total time  =          2 seconds =       0.03 minutes
   => Loading Basis Set <=

    Name: (STO-3G AUX)
    Role: JKFIT
    Keyword: DF_BASIS_SCF
    atoms 1   entry O          line   318 file /Users/deprince/software/psi4/v1.9.1/psi4/install/share/psi4/basis/def2-universal-jkfit.gbs 
    atoms 2-3 entry H          line    18 file /Users/deprince/software/psi4/v1.9.1/psi4/install/share/psi4/basis/def2-universal-jkfit.gbs 

   => Loading Basis Set <=

    Name: (STO-3G AUX)
    Role: RIFIT
    Keyword: DF_BASIS_CC
    atoms 1   entry O          line   233 file /Users/deprince/software/psi4/v1.9.1/psi4/install/share/psi4/basis/def2-svp-ri.gbs 
    atoms 2-3 entry H          line    22 file /Users/deprince/software/psi4/v1.9.1/psi4/install/share/psi4/basis/def2-svp-ri.gbs 


Reading options from the HILBERT block
Calling plugin hilbert.so.


Plugins that use gradients: set Da, Db, and Lagrangian for gradient theory on the wavefunction. The old way of passing these will stop working as soon as 1.8.    Molecular point group: c1
    Full point group: Cs

    Geometry (in Bohr), charge = 0, multiplicity = 1:

       Center              X                  Y                   Z               Mass       
    ------------   -----------------  -----------------  -----------------  -----------------
         O            0.000000000000    -0.000337857954    -0.129476889667    15.994914619570
         H            0.000000000000    -1.491505719181     1.025370227174     1.007825032230
         H            0.000000000000     1.496867770081     1.029521970571     1.007825032230

  -AO BASIS SET INFORMATION:
    Name                   = STO-3G
    Blend                  = STO-3G
    Total number of shells = 5
    Number of primitives   = 15
    Number of AO           = 7
    Number of SO           = 7
    Maximum AM             = 1
    Spherical Harmonics    = TRUE

  -Contraction Scheme:
    Atom   Type   All Primitives // Shells:
   ------ ------ --------------------------
       1     O     6s 3p // 2s 1p 
       2     H     3s // 1s 
       3     H     3s // 1s 

  ==> AO Basis Functions <==

    [ STO-3G ]
    spherical
    ****
    O   1
    S   3 1.00
                       130.70932000           0.15432897
                        23.80886100           0.53532814
                         6.44360830           0.44463454
    S   3 1.00
                         5.03315130          -0.09996723
                         1.16959610           0.39951283
                         0.38038900           0.70011547
    P   3 1.00
                         5.03315130           0.15591627
                         1.16959610           0.60768372
                         0.38038900           0.39195739
    ****
    H   2
    S   3 1.00
                         3.42525091           0.15432897
                         0.62391373           0.53532814
                         0.16885540           0.44463454
    ****
    H   3
    S   3 1.00
                         3.42525091           0.15432897
                         0.62391373           0.53532814
                         0.16885540           0.44463454
    ****



        *******************************************************
        *                                                     *
        *                                                     *
        *    Polaritonic UKS                                  *
        *                                                     *
        *                                                     *
        *******************************************************
    Molecular point group: c1
    Full point group: Cs

    Geometry (in Bohr), charge = 0, multiplicity = 1:

       Center              X                  Y                   Z               Mass       
    ------------   -----------------  -----------------  -----------------  -----------------
         O            0.000000000000    -0.000337857954    -0.129476889667    15.994914619570
         H            0.000000000000    -1.491505719181     1.025370227174     1.007825032230
         H            0.000000000000     1.496867770081     1.029521970571     1.007825032230

  -AO BASIS SET INFORMATION:
    Name                   = STO-3G
    Blend                  = STO-3G
    Total number of shells = 5
    Number of primitives   = 15
    Number of AO           = 7
    Number of SO           = 7
    Maximum AM             = 1
    Spherical Harmonics    = TRUE

  -Contraction Scheme:
    Atom   Type   All Primitives // Shells:
   ------ ------ --------------------------
       1     O     6s 3p // 2s 1p 
       2     H     3s // 1s 
       3     H     3s // 1s 

  ==> AO Basis Functions <==

    [ STO-3G ]
    spherical
    ****
    O   1
    S   3 1.00
                       130.70932000           0.15432897
                        23.80886100           0.53532814
                         6.44360830           0.44463454
    S   3 1.00
                         5.03315130          -0.09996723
                         1.16959610           0.39951283
                         0.38038900           0.70011547
    P   3 1.00
                         5.03315130           0.15591627
                         1.16959610           0.60768372
                         0.38038900           0.39195739
    ****
    H   2
    S   3 1.00
                         3.42525091           0.15432897
                         0.62391373           0.53532814
                         0.16885540           0.44463454
    ****
    H   3
    S   3 1.00
                         3.42525091           0.15432897
                         0.62391373           0.53532814
                         0.16885540           0.44463454
    ****

  ==> DFT Potential <==

   => LibXC <=

    Version 6.2.2
    S. Lehtola, C. Steigemann, M. J.T. Oliveira, and M. A.L. Marques.,  SoftwareX 7, 1–5 (2018) (10.1016/j.softx.2017.11.002)

   => Composite Functional: PBE <= 

    PBE GGA Exchange-Correlation Functional

    J.P. Perdew et. al., Phys. Rev. Lett., 77(18), 3865-3868, 1996


    Deriv               =              1
    GGA                 =           TRUE
    Meta                =          FALSE

    Exchange Hybrid     =          FALSE
    MP2 Hybrid          =          FALSE

   => Exchange Functionals <=

    1.0000     XC_GGA_X_PBE

   => Correlation Functionals <=

    1.0000     XC_GGA_C_PBE

   => LibXC Density Thresholds  <==

    XC_GGA_C_PBE:  1.00E-12 
    XC_GGA_X_PBE:  1.00E-15 

   => Molecular Quadrature <=

    Radial Scheme          =       TREUTLER
    Pruning Scheme         =           NONE
    Nuclear Scheme         =       TREUTLER

    Blocking Scheme        =         OCTREE
    BS radius alpha        =              1
    Pruning alpha          =              1
    Radial Points          =             75
    Spherical Points       =            590
    Total Points           =         128481
    Total Blocks           =           1014
    Max Points             =            256
    Max Functions          =              7
    Weights Tolerance      =       1.00E-15


    No. basis functions:                7
    No. auxiliary basis functions:    113
    No. alpha electrons:                5
    No. beta electrons:                 5
    e_convergence:              1.000e-10
    d_convergence:              1.000e-10
    maxiter:                          500



    Guess energy:      -71.905344275288

    ==>  Begin SCF Iterations <==

     Iter               energy                   dE          RMS |[F,P]| 
        0     -75.229816552548      -3.324472277260       0.000159277212
        1     -75.229817565843      -0.000001013295       0.000145766303
        2     -75.229817347974       0.000000217869       0.000170581964
        3     -75.229818310118      -0.000000962143       0.000001947688
        4     -75.229818310282      -0.000000000165       0.000000044167
        5     -75.229818310282      -0.000000000000       0.000000002499
        6     -75.229818310282      -0.000000000000       0.000000000075

    SCF iterations converged!


    ==> dipole self-energy: 1/2 lambda^2 ( <mu_e^2> - <mu_e>^2 ) <==

    one-electron part;        0.007660109218
    two-electron part:       -0.003028415237
    total:                    0.004631693982


    ==> dipole variance: ( <mu_e^2> - <mu_e>^2 ) <== 

    one electron (xx):       4.562896968725
    one electron (xy):       0.000000000000
    one electron (xz):       0.000000000000
    one electron (yy):       7.716858014230
    one electron (yz):       0.020837379550
    one electron (zz):       6.128087374718

    two electron (xx):      -1.672234278877
    two electron (xy):      -0.000000000000
    two electron (xz):      -0.000000000000
    two electron (yy):      -3.328199544479
    two electron (yz):      -0.004472274987
    two electron (zz):      -2.422732189412

    total (xx):              2.890662689848
    total (xy):              0.000000000000
    total (xz):              0.000000000000
    total (yy):              4.388658469752
    total (yz):              0.016365104562
    total (zz):              3.705355185306

    * Polaritonic UKS total energy:     -75.229818310282

 #  #
 Irrep: 1
      1:  -18.448921289119298
      2:   -0.824206003409960
      3:   -0.372580805308147
      4:   -0.165714039309701
      5:   -0.062973683295844
      6:    0.274771801604068
      7:    0.377947732870182


 #  #
 Irrep: 1
      1:  -18.448921289119298
      2:   -0.824206003409960
      3:   -0.372580805308147
      4:   -0.165714039309701
      5:   -0.062973683295844
      6:    0.274771801604068
      7:    0.377947732870182


    Psi4 stopped on: Monday, 01 July 2024 01:31PM
    Psi4 wall time for execution: 0:00:01.55


    -----------------------------------------------------------------------
          Psi4: An Open-Source Ab Initio Electronic Structure Package
                               Psi4 1.9.1 

                         Git: Rev {HEAD} f53cdd7 dirty


    D. G. A. Smith, L. A. Burns, A. C. Simmonett, R. M. Parrish,
    M. C. Schieber, R. Galvelis, P. Kraus, H. Kruse, R. Di Remigio,
    A. Alenaizan, A. M. James, S. Lehtola, J. P. Misiewicz, M. Scheurer,
    R. A. Shaw, J. B. Schriber, Y. Xie, Z. L. Glick, D. A. Sirianni,
    J. S. O'Brien, J. M. Waldrop, A. Kumar, E. G. Hohenstein,
    B. P. Pritchard, B. R. Brooks, H. F. Schaefer III, A. Yu. Sokolov,
    K. Patkowski, A. E. DePrince III, U. Bozkaya, R. A. King,
    F. A. Evangelista, J. M. Turney, T. D. Crawford, C. D. Sherrill,
    J. Chem. Phys. 152(18) 184108 (2020). https://doi.org/10.1063/5.0006002

                            Additional Code Authors
    E. T. Seidl, C. L. Janssen, E. F. Valeev, M. L. Leininger,
    J. F. Gonthier, R. M. Richard, H. R. McAlexander, M. Saitow, X. Wang,
    P. Verma, M. H. Lechner, A. Jiang, S. Behnle, A. G. Heide,
    M. F. Herbst, and D. L. Poole

             Previous Authors, Complete List of Code Contributors,
                       and Citations for Specific Modules
    https://github.com/psi4/psi4/blob/master/codemeta.json
    https://github.com/psi4/psi4/graphs/contributors
    http://psicode.org/psi4manual/master/introduction.html#citing-psifour

    -----------------------------------------------------------------------


    Psi4 started on: Monday, 01 July 2024 01:31PM

    Process ID: 65459
    Host:       wc-dhcp35d189.employee-secure.wireless.fsu.edu
    PSIDATADIR: /Users/deprince/software/psi4/v1.9.1/psi4/install/share/psi4
    Memory:     500.0 MiB
    Threads:    1
    
  ==> Input QCSchema <==

--------------------------------------------------------------------------
{'driver': 'energy',
 'extras': {'psiapi': True, 'wfn_qcvars_only': True},
 'id': None,
 'keywords': {'CAVITY_COUPLING_STRENGTH': [0.0, 0.0, 0.13041133482178593],
              'CAVITY_FREQUENCY': [0.0, 0.0, 0.07349864501573],
              'DFT_SPHERICAL_POINTS': 590,
              'D_CONVERGENCE': 1e-10,
              'E_CONVERGENCE': 1e-10,
              'MAXITER': 500,
              'N_PHOTON_STATES': 2,
              'PARENT_SYMMETRY': 'C1',
              'POINTS': 3,
              'QED_DFT_FUNCTIONAL': 'PBE',
              'REFERENCE': 'UKS',
              'SCF_TYPE': 'DF',
              'function_kwargs': {'write_orbitals': False}},
 'model': {'basis': 'sto-3g', 'method': 'qed-dft'},
 'molecule': {'atom_labels': ['', '', ''],
              'atomic_numbers': [8, 1, 1],
              'extras': {},
              'fix_com': True,
              'fix_orientation': True,
              'fix_symmetry': 'c1',
              'fragment_charges': [0.0],
              'fragment_multiplicities': [1],
              'fragments': [[0, 1, 2]],
              'geometry': [0.0, 0.00033785795355509936, -0.1294768896666024, 0.0, -1.496867770080925,
                           1.0295219705709344, 0.0, 1.4915057191813765, 1.0253702271736025],
              'mass_numbers': [16, 1, 1],
              'masses': [15.99491461957, 1.00782503223, 1.00782503223],
              'molecular_charge': 0.0,
              'molecular_multiplicity': 1,
              'name': 'h2',
              'provenance': {'creator': 'QCElemental',
                             'routine': 'qcelemental.molparse.from_string',
                             'version': '0.27.1'},
              'real': [True, True, True],
              'schema_name': 'qcschema_molecule',
              'schema_version': 2,
              'symbols': ['O', 'H', 'H'],
              'validated': True},
 'protocols': {'stdout': True},
 'provenance': {'creator': 'QCElemental', 'routine': 'qcelemental.models.results', 'version': '0.27.1'},
 'schema_name': 'qcschema_input',
 'schema_version': 1}
--------------------------------------------------------------------------

Scratch directory: /tmp/

Scratch directory: /tmp/
   => Libint2 <=

    Primary   basis highest AM E, G, H:  5, 4, 3
    Auxiliary basis highest AM E, G, H:  6, 5, 4
    Onebody   basis highest AM E, G, H:  6, 5, 4
    Solid Harmonics ordering:            Gaussian

*** tstart() called on wc-dhcp35d189.employee-secure.wireless.fsu.edu
*** at Mon Jul  1 13:31:29 2024

   => Loading Basis Set <=

    Name: STO-3G
    Role: ORBITAL
    Keyword: BASIS
    atoms 1   entry O          line    81 file /Users/deprince/software/psi4/v1.9.1/psi4/install/share/psi4/basis/sto-3g.gbs 
    atoms 2-3 entry H          line    19 file /Users/deprince/software/psi4/v1.9.1/psi4/install/share/psi4/basis/sto-3g.gbs 


         ---------------------------------------------------------
                                   SCF
               by Justin Turney, Rob Parrish, Andy Simmonett
                          and Daniel G. A. Smith
                              UKS Reference
                        1 Threads,    500 MiB Core
         ---------------------------------------------------------

  ==> Geometry <==

    Molecular point group: c1
    Full point group: Cs

    Geometry (in Bohr), charge = 0, multiplicity = 1:

       Center              X                  Y                   Z               Mass       
    ------------   -----------------  -----------------  -----------------  -----------------
         O            0.000000000000     0.000337857954    -0.129476889667    15.994914619570
         H            0.000000000000    -1.496867770081     1.029521970571     1.007825032230
         H            0.000000000000     1.491505719181     1.025370227174     1.007825032230

  Running in c1 symmetry.

  Rotational constants: A =     25.12624  B =     13.37706  C =      8.72952 [cm^-1]
  Rotational constants: A = 753265.70068  B = 401034.09167  C = 261704.30599 [MHz]
  Nuclear repulsion =    8.801496914678173

  Charge       = 0
  Multiplicity = 1
  Electrons    = 10
  Nalpha       = 5
  Nbeta        = 5

  ==> Algorithm <==

  SCF Algorithm Type is DF.
  DIIS enabled.
  MOM disabled.
  Fractional occupation disabled.
  Guess Type is SAD.
  Energy threshold   = 1.00e-10
  Density threshold  = 1.00e-10
  Integral threshold = 1.00e-12

  ==> Primary Basis <==

  Basis Set: STO-3G
    Blend: STO-3G
    Number of shells: 5
    Number of basis functions: 7
    Number of Cartesian functions: 7
    Spherical Harmonics?: true
    Max angular momentum: 1

  ==> DFT Potential <==

   => LibXC <=

    Version 6.2.2
    S. Lehtola, C. Steigemann, M. J.T. Oliveira, and M. A.L. Marques.,  SoftwareX 7, 1–5 (2018) (10.1016/j.softx.2017.11.002)

   => Composite Functional: PBE <= 

    PBE GGA Exchange-Correlation Functional

    J.P. Perdew et. al., Phys. Rev. Lett., 77(18), 3865-3868, 1996


    Deriv               =              1
    GGA                 =           TRUE
    Meta                =          FALSE

    Exchange Hybrid     =          FALSE
    MP2 Hybrid          =          FALSE

   => Exchange Functionals <=

    1.0000     XC_GGA_X_PBE

   => Correlation Functionals <=

    1.0000     XC_GGA_C_PBE

   => LibXC Density Thresholds  <==

    XC_GGA_C_PBE:  1.00E-12 
    XC_GGA_X_PBE:  1.00E-15 

   => Molecular Quadrature <=

    Radial Scheme          =       TREUTLER
    Pruning Scheme         =           NONE
    Nuclear Scheme         =       TREUTLER

    Blocking Scheme        =         OCTREE
    BS radius alpha        =              1
    Pruning alpha          =              1
    Radial Points          =             75
    Spherical Points       =            590
    Total Points           =         128481
    Total Blocks           =           1014
    Max Points             =            256
    Max Functions          =              7
    Weights Tolerance      =       1.00E-15

   => Loading Basis Set <=

    Name: (STO-3G AUX)
    Role: JKFIT
    Keyword: DF_BASIS_SCF
    atoms 1   entry O          line   318 file /Users/deprince/software/psi4/v1.9.1/psi4/install/share/psi4/basis/def2-universal-jkfit.gbs 
    atoms 2-3 entry H          line    18 file /Users/deprince/software/psi4/v1.9.1/psi4/install/share/psi4/basis/def2-universal-jkfit.gbs 

  ==> Integral Setup <==

  ==> DiskDFJK: Density-Fitted J/K Matrices <==

    J tasked:                  Yes
    K tasked:                   No
    wK tasked:                  No
    OpenMP threads:              1
    Integrals threads:           1
    Memory [MiB]:              348
    Algorithm:                Core
    Integral Cache:           SAVE
    Schwarz Cutoff:          1E-12
    Fitting Condition:       1E-10

   => Auxiliary Basis Set <=

  Basis Set: (STO-3G AUX)
    Blend: DEF2-UNIVERSAL-JKFIT
    Number of shells: 37
    Number of basis functions: 113
    Number of Cartesian functions: 133
    Spherical Harmonics?: true
    Max angular momentum: 4

  Cached 100.0% of DFT collocation blocks in 0.026 [GiB].

  Minimum eigenvalue in the overlap matrix is 3.7025904010E-01.
  Reciprocal condition number of the overlap matrix is 1.9725612383E-01.
    Using symmetric orthogonalization.

  ==> Pre-Iterations <==

  SCF Guess: Superposition of Atomic Densities via on-the-fly atomic UHF (no occupation information).

   -------------------------
    Irrep   Nso     Nmo    
   -------------------------
     A          7       7 
   -------------------------
    Total       7       7
   -------------------------

  ==> Iterations <==

                           Total Energy        Delta E     RMS |[F,P]|

   @DF-UKS iter SAD:   -74.82736536165851   -7.48274e+01   0.00000e+00 
   @DF-UKS iter   1:   -75.21662815121417   -3.89263e-01   2.19425e-02 DIIS/ADIIS
   @DF-UKS iter   2:   -75.21260061921154    4.02753e-03   2.55216e-02 DIIS/ADIIS
   @DF-UKS iter   3:   -75.23444744087482   -2.18468e-02   3.41749e-04 DIIS/ADIIS
   @DF-UKS iter   4:   -75.23445174134746   -4.30047e-06   1.95167e-05 DIIS
   @DF-UKS iter   5:   -75.23445175827817   -1.69307e-08   2.68080e-06 DIIS
   @DF-UKS iter   6:   -75.23445175866217   -3.84006e-10   1.62969e-07 DIIS
   @DF-UKS iter   7:   -75.23445175866320   -1.02318e-12   1.43682e-09 DIIS
   @DF-UKS iter   8:   -75.23445175866321   -1.42109e-14   1.20522e-10 DIIS
   @DF-UKS iter   9:   -75.23445175866318    2.84217e-14   8.28245e-14 DIIS
  Energy and wave function converged.


  ==> Post-Iterations <==

   Electrons on quadrature grid:
      Nalpha   =    4.9999999892 ; deviation = -1.077e-08
      Nbeta    =    4.9999999892 ; deviation = -1.077e-08
      Ntotal   =    9.9999999785 ; deviation = -2.154e-08 

   @Spin Contamination Metric:   7.105427358E-15
   @S^2 Expected:                0.000000000E+00
   @S^2 Observed:                7.105427358E-15
   @S   Expected:                0.000000000E+00
   @S   Observed:                0.000000000E+00

    Orbital Energies [Eh]
    ---------------------

    Alpha Occupied:                                                       

       1A    -18.449578     2A     -0.823949     3A     -0.373372  
       4A     -0.166443     5A     -0.063691  

    Alpha Virtual:                                                        

       6A      0.273422     7A      0.377253  

    Beta Occupied:                                                        

       1A    -18.449578     2A     -0.823949     3A     -0.373372  
       4A     -0.166443     5A     -0.063691  

    Beta Virtual:                                                         

       6A      0.273422     7A      0.377253  

    Final Occupation by Irrep:
              A 
    DOCC [     5 ]
    SOCC [     0 ]
    NA   [     5 ]
    NB   [     5 ]

  @DF-UKS Final Energy:   -75.23445175866318

   => Energetics <=

    Nuclear Repulsion Energy =              8.8014969146781734
    One-Electron Energy =                -121.6600098578671805
    Two-Electron Energy =                  46.9576547346179112
    DFT Exchange-Correlation Energy =      -9.3335935500920915
    Empirical Dispersion Energy =           0.0000000000000000
    VV10 Nonlocal Energy =                  0.0000000000000000
    Total Energy =                        -75.2344517586631838

  UHF NO Occupations:
  HONO-2 :    3  A 2.0000000
  HONO-1 :    4  A 2.0000000
  HONO-0 :    5  A 2.0000000
  LUNO+0 :    6  A 0.0000000
  LUNO+1 :    7  A -0.0000000


Computation Completed


Properties will be evaluated at   0.000000,   0.000000,   0.000000 [a0]

Properties computed using the SCF density matrix


 Multipole Moments:

 ------------------------------------------------------------------------------------
     Multipole            Electronic (a.u.)      Nuclear  (a.u.)        Total (a.u.)
 ------------------------------------------------------------------------------------

 L = 1.  Multiply by 2.5417464519 to convert [e a0] to [Debye]
 Dipole X            :          0.0000000            0.0000000            0.0000000
 Dipole Y            :          0.0036704           -0.0026592            0.0010112
 Dipole Z            :         -0.3962919            1.0190771            0.6227852
 Magnitude           :                                                    0.6227860

 ------------------------------------------------------------------------------------

*** tstop() called on wc-dhcp35d189.employee-secure.wireless.fsu.edu at Mon Jul  1 13:31:30 2024
Module time:
	user time   =       0.81 seconds =       0.01 minutes
	system time =       0.03 seconds =       0.00 minutes
	total time  =          1 seconds =       0.02 minutes
Total time:
	user time   =       3.66 seconds =       0.06 minutes
	system time =       0.15 seconds =       0.00 minutes
	total time  =          4 seconds =       0.07 minutes
   => Loading Basis Set <=

    Name: (STO-3G AUX)
    Role: JKFIT
    Keyword: DF_BASIS_SCF
    atoms 1   entry O          line   318 file /Users/deprince/software/psi4/v1.9.1/psi4/install/share/psi4/basis/def2-universal-jkfit.gbs 
    atoms 2-3 entry H          line    18 file /Users/deprince/software/psi4/v1.9.1/psi4/install/share/psi4/basis/def2-universal-jkfit.gbs 

   => Loading Basis Set <=

    Name: (STO-3G AUX)
    Role: RIFIT
    Keyword: DF_BASIS_CC
    atoms 1   entry O          line   233 file /Users/deprince/software/psi4/v1.9.1/psi4/install/share/psi4/basis/def2-svp-ri.gbs 
    atoms 2-3 entry H          line    22 file /Users/deprince/software/psi4/v1.9.1/psi4/install/share/psi4/basis/def2-svp-ri.gbs 


Reading options from the HILBERT block
Calling plugin hilbert.so.


Plugins that use gradients: set Da, Db, and Lagrangian for gradient theory on the wavefunction. The old way of passing these will stop working as soon as 1.8.    Molecular point group: c1
    Full point group: Cs

    Geometry (in Bohr), charge = 0, multiplicity = 1:

       Center              X                  Y                   Z               Mass       
    ------------   -----------------  -----------------  -----------------  -----------------
         O            0.000000000000     0.000337857954    -0.129476889667    15.994914619570
         H            0.000000000000    -1.496867770081     1.029521970571     1.007825032230
         H            0.000000000000     1.491505719181     1.025370227174     1.007825032230

  -AO BASIS SET INFORMATION:
    Name                   = STO-3G
    Blend                  = STO-3G
    Total number of shells = 5
    Number of primitives   = 15
    Number of AO           = 7
    Number of SO           = 7
    Maximum AM             = 1
    Spherical Harmonics    = TRUE

  -Contraction Scheme:
    Atom   Type   All Primitives // Shells:
   ------ ------ --------------------------
       1     O     6s 3p // 2s 1p 
       2     H     3s // 1s 
       3     H     3s // 1s 

  ==> AO Basis Functions <==

    [ STO-3G ]
    spherical
    ****
    O   1
    S   3 1.00
                       130.70932000           0.15432897
                        23.80886100           0.53532814
                         6.44360830           0.44463454
    S   3 1.00
                         5.03315130          -0.09996723
                         1.16959610           0.39951283
                         0.38038900           0.70011547
    P   3 1.00
                         5.03315130           0.15591627
                         1.16959610           0.60768372
                         0.38038900           0.39195739
    ****
    H   2
    S   3 1.00
                         3.42525091           0.15432897
                         0.62391373           0.53532814
                         0.16885540           0.44463454
    ****
    H   3
    S   3 1.00
                         3.42525091           0.15432897
                         0.62391373           0.53532814
                         0.16885540           0.44463454
    ****



        *******************************************************
        *                                                     *
        *                                                     *
        *    Polaritonic UKS                                  *
        *                                                     *
        *                                                     *
        *******************************************************
    Molecular point group: c1
    Full point group: Cs

    Geometry (in Bohr), charge = 0, multiplicity = 1:

       Center              X                  Y                   Z               Mass       
    ------------   -----------------  -----------------  -----------------  -----------------
         O            0.000000000000     0.000337857954    -0.129476889667    15.994914619570
         H            0.000000000000    -1.496867770081     1.029521970571     1.007825032230
         H            0.000000000000     1.491505719181     1.025370227174     1.007825032230

  -AO BASIS SET INFORMATION:
    Name                   = STO-3G
    Blend                  = STO-3G
    Total number of shells = 5
    Number of primitives   = 15
    Number of AO           = 7
    Number of SO           = 7
    Maximum AM             = 1
    Spherical Harmonics    = TRUE

  -Contraction Scheme:
    Atom   Type   All Primitives // Shells:
   ------ ------ --------------------------
       1     O     6s 3p // 2s 1p 
       2     H     3s // 1s 
       3     H     3s // 1s 

  ==> AO Basis Functions <==

    [ STO-3G ]
    spherical
    ****
    O   1
    S   3 1.00
                       130.70932000           0.15432897
                        23.80886100           0.53532814
                         6.44360830           0.44463454
    S   3 1.00
                         5.03315130          -0.09996723
                         1.16959610           0.39951283
                         0.38038900           0.70011547
    P   3 1.00
                         5.03315130           0.15591627
                         1.16959610           0.60768372
                         0.38038900           0.39195739
    ****
    H   2
    S   3 1.00
                         3.42525091           0.15432897
                         0.62391373           0.53532814
                         0.16885540           0.44463454
    ****
    H   3
    S   3 1.00
                         3.42525091           0.15432897
                         0.62391373           0.53532814
                         0.16885540           0.44463454
    ****

  ==> DFT Potential <==

   => LibXC <=

    Version 6.2.2
    S. Lehtola, C. Steigemann, M. J.T. Oliveira, and M. A.L. Marques.,  SoftwareX 7, 1–5 (2018) (10.1016/j.softx.2017.11.002)

   => Composite Functional: PBE <= 

    PBE GGA Exchange-Correlation Functional

    J.P. Perdew et. al., Phys. Rev. Lett., 77(18), 3865-3868, 1996


    Deriv               =              1
    GGA                 =           TRUE
    Meta                =          FALSE

    Exchange Hybrid     =          FALSE
    MP2 Hybrid          =          FALSE

   => Exchange Functionals <=

    1.0000     XC_GGA_X_PBE

   => Correlation Functionals <=

    1.0000     XC_GGA_C_PBE

   => LibXC Density Thresholds  <==

    XC_GGA_C_PBE:  1.00E-12 
    XC_GGA_X_PBE:  1.00E-15 

   => Molecular Quadrature <=

    Radial Scheme          =       TREUTLER
    Pruning Scheme         =           NONE
    Nuclear Scheme         =       TREUTLER

    Blocking Scheme        =         OCTREE
    BS radius alpha        =              1
    Pruning alpha          =              1
    Radial Points          =             75
    Spherical Points       =            590
    Total Points           =         128481
    Total Blocks           =           1014
    Max Points             =            256
    Max Functions          =              7
    Weights Tolerance      =       1.00E-15


    No. basis functions:                7
    No. auxiliary basis functions:    113
    No. alpha electrons:                5
    No. beta electrons:                 5
    e_convergence:              1.000e-10
    d_convergence:              1.000e-10
    maxiter:                          500



    Guess energy:      -71.905344275305

    ==>  Begin SCF Iterations <==

     Iter               energy                   dE          RMS |[F,P]| 
        0     -75.229816552566      -3.324472277261       0.000159277212
        1     -75.229817565860      -0.000001013295       0.000145766303
        2     -75.229817347991       0.000000217869       0.000170581964
        3     -75.229818310135      -0.000000962144       0.000001947688
        4     -75.229818310300      -0.000000000165       0.000000044167
        5     -75.229818310300       0.000000000000       0.000000002499
        6     -75.229818310300       0.000000000000       0.000000000075

    SCF iterations converged!


    ==> dipole self-energy: 1/2 lambda^2 ( <mu_e^2> - <mu_e>^2 ) <==

    one-electron part;        0.007660109218
    two-electron part:       -0.003028415237
    total:                    0.004631693982


    ==> dipole variance: ( <mu_e^2> - <mu_e>^2 ) <== 

    one electron (xx):       4.562896968724
    one electron (xy):       0.000000000000
    one electron (xz):       0.000000000000
    one electron (yy):       7.716858014223
    one electron (yz):      -0.020837379550
    one electron (zz):       6.128087374714

    two electron (xx):      -1.672234278877
    two electron (xy):      -0.000000000000
    two electron (xz):      -0.000000000000
    two electron (yy):      -3.328199544473
    two electron (yz):       0.004472274987
    two electron (zz):      -2.422732189410

    total (xx):              2.890662689847
    total (xy):              0.000000000000
    total (xz):              0.000000000000
    total (yy):              4.388658469750
    total (yz):             -0.016365104562
    total (zz):              3.705355185304

    * Polaritonic UKS total energy:     -75.229818310300

 #  #
 Irrep: 1
      1:  -18.448921289122730
      2:   -0.824206003412471
      3:   -0.372580805310264
      4:   -0.165714039312226
      5:   -0.062973683298293
      6:    0.274771801601717
      7:    0.377947732868030


 #  #
 Irrep: 1
      1:  -18.448921289122730
      2:   -0.824206003412471
      3:   -0.372580805310264
      4:   -0.165714039312226
      5:   -0.062973683298293
      6:    0.274771801601717
      7:    0.377947732868030


    Psi4 stopped on: Monday, 01 July 2024 01:31PM
    Psi4 wall time for execution: 0:00:01.56


    -----------------------------------------------------------------------
          Psi4: An Open-Source Ab Initio Electronic Structure Package
                               Psi4 1.9.1 

                         Git: Rev {HEAD} f53cdd7 dirty


    D. G. A. Smith, L. A. Burns, A. C. Simmonett, R. M. Parrish,
    M. C. Schieber, R. Galvelis, P. Kraus, H. Kruse, R. Di Remigio,
    A. Alenaizan, A. M. James, S. Lehtola, J. P. Misiewicz, M. Scheurer,
    R. A. Shaw, J. B. Schriber, Y. Xie, Z. L. Glick, D. A. Sirianni,
    J. S. O'Brien, J. M. Waldrop, A. Kumar, E. G. Hohenstein,
    B. P. Pritchard, B. R. Brooks, H. F. Schaefer III, A. Yu. Sokolov,
    K. Patkowski, A. E. DePrince III, U. Bozkaya, R. A. King,
    F. A. Evangelista, J. M. Turney, T. D. Crawford, C. D. Sherrill,
    J. Chem. Phys. 152(18) 184108 (2020). https://doi.org/10.1063/5.0006002

                            Additional Code Authors
    E. T. Seidl, C. L. Janssen, E. F. Valeev, M. L. Leininger,
    J. F. Gonthier, R. M. Richard, H. R. McAlexander, M. Saitow, X. Wang,
    P. Verma, M. H. Lechner, A. Jiang, S. Behnle, A. G. Heide,
    M. F. Herbst, and D. L. Poole

             Previous Authors, Complete List of Code Contributors,
                       and Citations for Specific Modules
    https://github.com/psi4/psi4/blob/master/codemeta.json
    https://github.com/psi4/psi4/graphs/contributors
    http://psicode.org/psi4manual/master/introduction.html#citing-psifour

    -----------------------------------------------------------------------


    Psi4 started on: Monday, 01 July 2024 01:31PM

    Process ID: 65459
    Host:       wc-dhcp35d189.employee-secure.wireless.fsu.edu
    PSIDATADIR: /Users/deprince/software/psi4/v1.9.1/psi4/install/share/psi4
    Memory:     500.0 MiB
    Threads:    1
    
  ==> Input QCSchema <==

--------------------------------------------------------------------------
{'driver': 'energy',
 'extras': {'psiapi': True, 'wfn_qcvars_only': True},
 'id': None,
 'keywords': {'CAVITY_COUPLING_STRENGTH': [0.0, 0.0, 0.13041133482178593],
              'CAVITY_FREQUENCY': [0.0, 0.0, 0.07349864501573],
              'DFT_SPHERICAL_POINTS': 590,
              'D_CONVERGENCE': 1e-10,
              'E_CONVERGENCE': 1e-10,
              'MAXITER': 500,
              'N_PHOTON_STATES': 2,
              'PARENT_SYMMETRY': 'C1',
              'POINTS': 3,
              'QED_DFT_FUNCTIONAL': 'PBE',
              'REFERENCE': 'UKS',
              'SCF_TYPE': 'DF',
              'function_kwargs': {'write_orbitals': False}},
 'model': {'basis': 'sto-3g', 'method': 'qed-dft'},
 'molecule': {'atom_labels': ['', '', ''],
              'atomic_numbers': [8, 1, 1],
              'extras': {},
              'fix_com': True,
              'fix_orientation': True,
              'fix_symmetry': 'c1',
              'fragment_charges': [0.0],
              'fragment_multiplicities': [1],
              'fragments': [[0, 1, 2]],
              'geometry': [0.0, 0.0, -0.12989512714251314, 0.0, -1.4941867446311508, 1.0307649649968251, 0.0,
                           1.4941867446311508, 1.0307649649968251],
              'mass_numbers': [16, 1, 1],
              'masses': [15.99491461957, 1.00782503223, 1.00782503223],
              'molecular_charge': 0.0,
              'molecular_multiplicity': 1,
              'name': 'h2',
              'provenance': {'creator': 'QCElemental',
                             'routine': 'qcelemental.molparse.from_string',
                             'version': '0.27.1'},
              'real': [True, True, True],
              'schema_name': 'qcschema_molecule',
              'schema_version': 2,
              'symbols': ['O', 'H', 'H'],
              'validated': True},
 'protocols': {'stdout': True},
 'provenance': {'creator': 'QCElemental', 'routine': 'qcelemental.models.results', 'version': '0.27.1'},
 'schema_name': 'qcschema_input',
 'schema_version': 1}
--------------------------------------------------------------------------

Scratch directory: /tmp/

Scratch directory: /tmp/
   => Libint2 <=

    Primary   basis highest AM E, G, H:  5, 4, 3
    Auxiliary basis highest AM E, G, H:  6, 5, 4
    Onebody   basis highest AM E, G, H:  6, 5, 4
    Solid Harmonics ordering:            Gaussian

*** tstart() called on wc-dhcp35d189.employee-secure.wireless.fsu.edu
*** at Mon Jul  1 13:31:31 2024

   => Loading Basis Set <=

    Name: STO-3G
    Role: ORBITAL
    Keyword: BASIS
    atoms 1   entry O          line    81 file /Users/deprince/software/psi4/v1.9.1/psi4/install/share/psi4/basis/sto-3g.gbs 
    atoms 2-3 entry H          line    19 file /Users/deprince/software/psi4/v1.9.1/psi4/install/share/psi4/basis/sto-3g.gbs 


         ---------------------------------------------------------
                                   SCF
               by Justin Turney, Rob Parrish, Andy Simmonett
                          and Daniel G. A. Smith
                              UKS Reference
                        1 Threads,    500 MiB Core
         ---------------------------------------------------------

  ==> Geometry <==

    Molecular point group: c1
    Full point group: C2v

    Geometry (in Bohr), charge = 0, multiplicity = 1:

       Center              X                  Y                   Z               Mass       
    ------------   -----------------  -----------------  -----------------  -----------------
         O            0.000000000000     0.000000000000    -0.129895127143    15.994914619570
         H            0.000000000000    -1.494186744631     1.030764964997     1.007825032230
         H            0.000000000000     1.494186744631     1.030764964997     1.007825032230

  Running in c1 symmetry.

  Rotational constants: A =     24.96401  B =     13.37733  C =      8.70997 [cm^-1]
  Rotational constants: A = 748402.27026  B = 401042.16706  C = 261118.20507 [MHz]
  Nuclear repulsion =    8.791216724228573

  Charge       = 0
  Multiplicity = 1
  Electrons    = 10
  Nalpha       = 5
  Nbeta        = 5

  ==> Algorithm <==

  SCF Algorithm Type is DF.
  DIIS enabled.
  MOM disabled.
[...]

  Basis Set: (STO-3G AUX)
    Blend: DEF2-UNIVERSAL-JKFIT
    Number of shells: 37
    Number of basis functions: 113
    Number of Cartesian functions: 133
    Spherical Harmonics?: true
    Max angular momentum: 4

  Cached 100.0% of DFT collocation blocks in 0.026 [GiB].

  Minimum eigenvalue in the overlap matrix is 3.7028400386E-01.
  Reciprocal condition number of the overlap matrix is 1.9726983142E-01.
    Using symmetric orthogonalization.

  ==> Pre-Iterations <==

  SCF Guess: Superposition of Atomic Densities via on-the-fly atomic UHF (no occupation information).

   -------------------------
    Irrep   Nso     Nmo    
   -------------------------
     A          7       7 
   -------------------------
    Total       7       7
   -------------------------

  ==> Iterations <==

                           Total Energy        Delta E     RMS |[F,P]|

   @DF-UKS iter SAD:   -74.82736076004011   -7.48274e+01   0.00000e+00 
   @DF-UKS iter   1:   -75.21663658264096   -3.89276e-01   2.19423e-02 DIIS/ADIIS
   @DF-UKS iter   2:   -75.21261015063153    4.02643e-03   2.55210e-02 DIIS/ADIIS
   @DF-UKS iter   3:   -75.23445557318303   -2.18454e-02   3.41395e-04 DIIS/ADIIS
   @DF-UKS iter   4:   -75.23445986207614   -4.28889e-06   1.86086e-05 DIIS
   @DF-UKS iter   5:   -75.23445987751371   -1.54376e-08   4.51912e-07 DIIS
   @DF-UKS iter   6:   -75.23445987752157   -7.85860e-12   9.54653e-10 DIIS
   @DF-UKS iter   7:   -75.23445987752154    2.84217e-14   1.23387e-12 DIIS
  Energy and wave function converged.


  ==> Post-Iterations <==

   Electrons on quadrature grid:
      Nalpha   =    4.9999999892 ; deviation = -1.082e-08
      Nbeta    =    4.9999999892 ; deviation = -1.082e-08
      Ntotal   =    9.9999999784 ; deviation = -2.163e-08 

   @Spin Contamination Metric:   7.105427358E-15
   @S^2 Expected:                0.000000000E+00
   @S^2 Observed:                7.105427358E-15
   @S   Expected:                0.000000000E+00
   @S   Observed:                0.000000000E+00

    Orbital Energies [Eh]
    ---------------------

    Alpha Occupied:                                                       

       1A    -18.449577     2A     -0.823944     3A     -0.373373  
       4A     -0.166443     5A     -0.063691  

    Alpha Virtual:                                                        

       6A      0.273448     7A      0.377222  

    Beta Occupied:                                                        

       1A    -18.449577     2A     -0.823944     3A     -0.373373  
       4A     -0.166443     5A     -0.063691  

    Beta Virtual:                                                         

       6A      0.273448     7A      0.377222  

    Final Occupation by Irrep:
              A 
    DOCC [     5 ]
    SOCC [     0 ]
    NA   [     5 ]
    NB   [     5 ]

  @DF-UKS Final Energy:   -75.23445987752154

   => Energetics <=

    Nuclear Repulsion Energy =              8.8014655645634061
    One-Electron Energy =                -121.6599724527298747
    Two-Electron Energy =                  46.9576381731632253
    DFT Exchange-Correlation Energy =      -9.3335911625182959
    Empirical Dispersion Energy =           0.0000000000000000
    VV10 Nonlocal Energy =                  0.0000000000000000
    Total Energy =                        -75.2344598775215445

  UHF NO Occupations:
  HONO-2 :    3  A 2.0000000
  HONO-1 :    4  A 2.0000000
  HONO-0 :    5  A 2.0000000
  LUNO+0 :    6  A -0.0000000
  LUNO+1 :    7  A -0.0000000


Computation Completed


Properties will be evaluated at   0.000000,   0.000000,   0.000000 [a0]

Properties computed using the SCF density matrix


 Multipole Moments:

 ------------------------------------------------------------------------------------
     Multipole            Electronic (a.u.)      Nuclear  (a.u.)        Total (a.u.)
 ------------------------------------------------------------------------------------

 L = 1.  Multiply by 2.5417464519 to convert [e a0] to [Debye]
 Dipole X            :          0.0000000            0.0000000            0.0000000
 Dipole Y            :         -0.0000000            0.0000000           -0.0000000
 Dipole Z            :         -0.3962941            1.0190771            0.6227830
 Magnitude           :                                                    0.6227830

 ------------------------------------------------------------------------------------

*** tstop() called on wc-dhcp35d189.employee-secure.wireless.fsu.edu at Mon Jul  1 13:31:37 2024
Module time:
	user time   =       0.67 seconds =       0.01 minutes
	system time =       0.02 seconds =       0.00 minutes
	total time  =          1 seconds =       0.02 minutes
Total time:
	user time   =      10.21 seconds =       0.17 minutes
	system time =       0.37 seconds =       0.01 minutes
	total time  =         11 seconds =       0.18 minutes
   => Loading Basis Set <=

    Name: (STO-3G AUX)
    Role: JKFIT
    Keyword: DF_BASIS_SCF
    atoms 1   entry O          line   318 file /Users/deprince/software/psi4/v1.9.1/psi4/install/share/psi4/basis/def2-universal-jkfit.gbs 
    atoms 2-3 entry H          line    18 file /Users/deprince/software/psi4/v1.9.1/psi4/install/share/psi4/basis/def2-universal-jkfit.gbs 

   => Loading Basis Set <=

    Name: (STO-3G AUX)
    Role: RIFIT
    Keyword: DF_BASIS_CC
    atoms 1   entry O          line   233 file /Users/deprince/software/psi4/v1.9.1/psi4/install/share/psi4/basis/def2-svp-ri.gbs 
    atoms 2-3 entry H          line    22 file /Users/deprince/software/psi4/v1.9.1/psi4/install/share/psi4/basis/def2-svp-ri.gbs 


Reading options from the HILBERT block
Calling plugin hilbert.so.


Plugins that use gradients: set Da, Db, and Lagrangian for gradient theory on the wavefunction. The old way of passing these will stop working as soon as 1.8.    Molecular point group: c1
    Full point group: C2v

    Geometry (in Angstrom), charge = 0, multiplicity = 1:

       Center              X                  Y                   Z               Mass       
    ------------   -----------------  -----------------  -----------------  -----------------
         O            0.000000000000     0.000000000000    -0.068516219320    15.994914619570
         H            0.000000000000    -0.790689573744     0.543701060715     1.007825032230
         H            0.000000000000     0.790689573744     0.543701060715     1.007825032230

  -AO BASIS SET INFORMATION:
    Name                   = STO-3G
    Blend                  = STO-3G
    Total number of shells = 5
    Number of primitives   = 15
    Number of AO           = 7
    Number of SO           = 7
    Maximum AM             = 1
    Spherical Harmonics    = TRUE

  -Contraction Scheme:
    Atom   Type   All Primitives // Shells:
   ------ ------ --------------------------
       1     O     6s 3p // 2s 1p 
       2     H     3s // 1s 
       3     H     3s // 1s 

  ==> AO Basis Functions <==

    [ STO-3G ]
    spherical
    ****
    O   1
    S   3 1.00
                       130.70932000           0.15432897
                        23.80886100           0.53532814
                         6.44360830           0.44463454
    S   3 1.00
                         5.03315130          -0.09996723
                         1.16959610           0.39951283
                         0.38038900           0.70011547
    P   3 1.00
                         5.03315130           0.15591627
                         1.16959610           0.60768372
                         0.38038900           0.39195739
    ****
    H   2
    S   3 1.00
                         3.42525091           0.15432897
                         0.62391373           0.53532814
                         0.16885540           0.44463454
    ****
    H   3
    S   3 1.00
                         3.42525091           0.15432897
                         0.62391373           0.53532814
                         0.16885540           0.44463454
    ****



        *******************************************************
        *                                                     *
        *                                                     *
        *    Polaritonic UKS                                  *
        *                                                     *
        *                                                     *
        *******************************************************
    Molecular point group: c1
    Full point group: C2v

    Geometry (in Angstrom), charge = 0, multiplicity = 1:

       Center              X                  Y                   Z               Mass       
    ------------   -----------------  -----------------  -----------------  -----------------
         O            0.000000000000     0.000000000000    -0.068516219320    15.994914619570
         H            0.000000000000    -0.790689573744     0.543701060715     1.007825032230
         H            0.000000000000     0.790689573744     0.543701060715     1.007825032230

  -AO BASIS SET INFORMATION:
    Name                   = STO-3G
    Blend                  = STO-3G
    Total number of shells = 5
    Number of primitives   = 15
    Number of AO           = 7
    Number of SO           = 7
    Maximum AM             = 1
    Spherical Harmonics    = TRUE

  -Contraction Scheme:
    Atom   Type   All Primitives // Shells:
   ------ ------ --------------------------
       1     O     6s 3p // 2s 1p 
       2     H     3s // 1s 
       3     H     3s // 1s 

  ==> AO Basis Functions <==

    [ STO-3G ]
    spherical
    ****
    O   1
    S   3 1.00
                       130.70932000           0.15432897
                        23.80886100           0.53532814
                         6.44360830           0.44463454
    S   3 1.00
                         5.03315130          -0.09996723
                         1.16959610           0.39951283
                         0.38038900           0.70011547
    P   3 1.00
                         5.03315130           0.15591627
                         1.16959610           0.60768372
                         0.38038900           0.39195739
    ****
    H   2
    S   3 1.00
                         3.42525091           0.15432897
                         0.62391373           0.53532814
                         0.16885540           0.44463454
    ****
    H   3
    S   3 1.00
                         3.42525091           0.15432897
                         0.62391373           0.53532814
                         0.16885540           0.44463454
    ****

  ==> DFT Potential <==

   => LibXC <=

    Version 6.2.2
    S. Lehtola, C. Steigemann, M. J.T. Oliveira, and M. A.L. Marques.,  SoftwareX 7, 1–5 (2018) (10.1016/j.softx.2017.11.002)

   => Composite Functional: PBE <= 

    PBE GGA Exchange-Correlation Functional

    J.P. Perdew et. al., Phys. Rev. Lett., 77(18), 3865-3868, 1996


    Deriv               =              1
    GGA                 =           TRUE
    Meta                =          FALSE

    Exchange Hybrid     =          FALSE
    MP2 Hybrid          =          FALSE

   => Exchange Functionals <=

    1.0000     XC_GGA_X_PBE

   => Correlation Functionals <=

    1.0000     XC_GGA_C_PBE

   => LibXC Density Thresholds  <==

    XC_GGA_C_PBE:  1.00E-12 
    XC_GGA_X_PBE:  1.00E-15 

   => Molecular Quadrature <=

    Radial Scheme          =       TREUTLER
    Pruning Scheme         =           NONE
    Nuclear Scheme         =       TREUTLER

    Blocking Scheme        =         OCTREE
    BS radius alpha        =              1
    Pruning alpha          =              1
    Radial Points          =             75
    Spherical Points       =            590
    Total Points           =         128485
    Total Blocks           =           1016
    Max Points             =            256
    Max Functions          =              7
    Weights Tolerance      =       1.00E-15


    No. basis functions:                7
    No. auxiliary basis functions:    113
    No. alpha electrons:                5
    No. beta electrons:                 5
    e_convergence:              1.000e-10
    d_convergence:              1.000e-10
    maxiter:                          500



    Guess energy:      -71.905353227232

    ==>  Begin SCF Iterations <==

     Iter               energy                   dE          RMS |[F,P]| 
        0     -75.229824675109      -3.324471447877       0.000159277368
        1     -75.229825688449      -0.000001013340       0.000145763492
        2     -75.229825470653       0.000000217796       0.000170573899
        3     -75.229826432683      -0.000000962030       0.000001947655
        4     -75.229826432848      -0.000000000165       0.000000043666
        5     -75.229826432848      -0.000000000000       0.000000000022

    SCF iterations converged!


    ==> dipole self-energy: 1/2 lambda^2 ( <mu_e^2> - <mu_e>^2 ) <==

    one-electron part;        0.007660100703
    two-electron part:       -0.003028410415
    total:                    0.004631690288


    ==> dipole variance: ( <mu_e^2> - <mu_e>^2 ) <== 

    one electron (xx):       4.562898930282
    one electron (xy):       0.000000000000
    one electron (xz):      -0.000000000000
    one electron (yy):       7.716846890333
    one electron (yz):       0.000000000000
    one electron (zz):       6.128080562108

    two electron (xx):      -1.672234233762
    two electron (xy):       0.000000000000
    two electron (xz):       0.000000000000
    two electron (yy):      -3.328195742400
    two electron (yz):       0.000000000000
    two electron (zz):      -2.422728331723

    total (xx):              2.890664696520
    total (xy):              0.000000000000
    total (xz):             -0.000000000000
    total (yy):              4.388651147933
    total (yz):              0.000000000000
    total (zz):              3.705352230385

    * Polaritonic UKS total energy:     -75.229826432848

 #  #
 Irrep: 1
      1:  -18.448921040821958
      2:   -0.824201709224714
      3:   -0.372582289435579
      4:   -0.165714119941416
      5:   -0.062972969893162
      6:    0.274797602791080
      7:    0.377916341854913


 #  #
 Irrep: 1
      1:  -18.448921040821958
      2:   -0.824201709224714
      3:   -0.372582289435579
      4:   -0.165714119941416
      5:   -0.062972969893162
      6:    0.274797602791080
      7:    0.377916341854913


*** tstart() called on wc-dhcp35d189.employee-secure.wireless.fsu.edu
*** at Mon Jul  1 13:31:37 2024


         ------------------------------------------------------------
                                   SCF GRAD                          
                          Rob Parrish, Justin Turney,                
                       Andy Simmonett, and Alex Sokolov              
         ------------------------------------------------------------

  ==> Geometry <==

    Molecular point group: c1
    Full point group: C2v

    Geometry (in Angstrom), charge = 0, multiplicity = 1:

       Center              X                  Y                   Z               Mass       
    ------------   -----------------  -----------------  -----------------  -----------------
         O            0.000000000000     0.000000000000    -0.068516219320    15.994914619570
         H            0.000000000000    -0.790689573744     0.543701060715     1.007825032230
         H            0.000000000000     0.790689573744     0.543701060715     1.007825032230

  Nuclear repulsion =    8.801465564563406

  ==> Basis Set <==

  Basis Set: STO-3G
    Blend: STO-3G
    Number of shells: 5
    Number of basis functions: 7
    Number of Cartesian functions: 7
    Spherical Harmonics?: true
    Max angular momentum: 1

  ==> DFJKGrad: Density-Fitted SCF Gradients <==

    Gradient:                    1
    J tasked:                  Yes
    K tasked:                   No
    wK tasked:                  No
    OpenMP threads:              1
    Integrals threads:           1
    Memory [MiB]:              375
    Schwarz Cutoff:          1E-12
    Fitting Condition:       1E-10

   => Auxiliary Basis Set <=

  Basis Set: (STO-3G AUX)
    Blend: DEF2-UNIVERSAL-JKFIT
    Number of shells: 37
    Number of basis functions: 113
    Number of Cartesian functions: 133
    Spherical Harmonics?: true
    Max angular momentum: 4

  ==> DFT Potential <==

   => LibXC <=

    Version 6.2.2
    S. Lehtola, C. Steigemann, M. J.T. Oliveira, and M. A.L. Marques.,  SoftwareX 7, 1–5 (2018) (10.1016/j.softx.2017.11.002)

   => Composite Functional: PBE <= 

    PBE GGA Exchange-Correlation Functional

    J.P. Perdew et. al., Phys. Rev. Lett., 77(18), 3865-3868, 1996


    Deriv               =              1
    GGA                 =           TRUE
    Meta                =          FALSE

    Exchange Hybrid     =          FALSE
    MP2 Hybrid          =          FALSE

   => Exchange Functionals <=

    1.0000     XC_GGA_X_PBE

   => Correlation Functionals <=

    1.0000     XC_GGA_C_PBE

   => LibXC Density Thresholds  <==

    XC_GGA_C_PBE:  1.00E-12 
    XC_GGA_X_PBE:  1.00E-15 

   => Molecular Quadrature <=

    Radial Scheme          =       TREUTLER
    Pruning Scheme         =           NONE
    Nuclear Scheme         =       TREUTLER

    Blocking Scheme        =         OCTREE
    BS radius alpha        =              1
    Pruning alpha          =              1
    Radial Points          =             75
    Spherical Points       =            590
    Total Points           =         128485
    Total Blocks           =           1016
    Max Points             =            256
    Max Functions          =              7
    Weights Tolerance      =       1.00E-15


  -Total Gradient:
     Atom            X                  Y                   Z
    ------   -----------------  -----------------  -----------------
       1        0.000000000000     0.000000000001     0.063845816897
       2       -0.000000000000     0.012701620546    -0.031922777479
       3        0.000000000000    -0.012701620547    -0.031922777480


*** tstop() called on wc-dhcp35d189.employee-secure.wireless.fsu.edu at Mon Jul  1 13:31:37 2024
Module time:
	user time   =       0.13 seconds =       0.00 minutes
	system time =       0.00 seconds =       0.00 minutes
	total time  =          0 seconds =       0.00 minutes
Total time:
	user time   =      10.91 seconds =       0.18 minutes
	system time =       0.39 seconds =       0.01 minutes
	total time  =         11 seconds =       0.18 minutes

Electronic Gradient: norm =       0.080231403504

  ## Total Gradient (Symmetry 0) ##
  Irrep: 1 Size: 3 x 3

                 1                   2                   3

    1     0.00000000000004     0.00000000000094     0.06384581689724
    2    -0.00000000000000     0.01270162054574    -0.03192277747891
    3     0.00000000000000    -0.01270162054661    -0.03192277747964




 # Electronic Gradient |xyz| #
 Irrep: 1
      1:    0.000000000000035
      2:    0.017962804040519
      3:    0.078194729868826


Polaritonic Gradient: norm =       0.077730563918

  ## Total Gradient (Symmetry 0) ##
  Irrep: 1 Size: 3 x 3

                 1                   2                   3

    1     0.00000000000004     0.00000000000094     0.06182045841283
    2    -0.00000000000000     0.01243790863930    -0.03091009823670
    3     0.00000000000000    -0.01243790864018    -0.03091009823744




 # Polaritonic Gradient |xyz| #
 Irrep: 1
      1:    0.000000000000035
      2:    0.017589859085873
      3:    0.075714182452319

Gradient Difference: norm =      -0.002500839586

 # Gradient Difference |xyz| #
 Irrep: 1
      1:   -0.000000000000000
      2:   -0.000372944954645
      3:   -0.002480547416507

    QED-DFT numerical versus analytic energy gradient.....................................PASSED

    Psi4 stopped on: Monday, 01 July 2024 01:31PM
    Psi4 wall time for execution: 0:00:11.79

*** Psi4 exiting successfully. Buy a developer a beer!
