
    -----------------------------------------------------------------------
          Psi4: An Open-Source Ab Initio Electronic Structure Package
                               Psi4 1.10 

                         Git: Rev {HEAD} f2492db dirty


    D. G. A. Smith, L. A. Burns, A. C. Simmonett, R. M. Parrish,
    M. C. Schieber, R. Galvelis, P. Kraus, H. Kruse, R. Di Remigio,
    A. Alenaizan, A. M. James, S. Lehtola, J. P. Misiewicz, M. Scheurer,
    R. A. Shaw, J. B. Schriber, Y. Xie, Z. L. Glick, D. A. Sirianni,
    J. S. O'Brien, J. M. Waldrop, A. Kumar, E. G. Hohenstein,
    B. P. Pritchard, B. R. Brooks, H. F. Schaefer III, A. Yu. Sokolov,
    K. Patkowski, A. E. DePrince III, U. Bozkaya, R. A. King,
    F. A. Evangelista, J. M. Turney, T. D. Crawford, C. D. Sherrill,
    J. Chem. Phys. 152(18) 184108 (2020). https://doi.org/10.1063/5.0006002

                            Additional Code Authors
    E. T. Seidl, C. L. Janssen, E. F. Valeev, M. L. Leininger,
    J. F. Gonthier, R. M. Richard, H. R. McAlexander, M. Saitow, X. Wang,
    P. Verma, M. H. Lechner, A. Jiang, S. Behnle, A. G. Heide,
    M. F. Herbst, D. L. Poole, T. Győri, E. C. Mitchell, J. P. Pederson,
    and A. M. Wallace

             Previous Authors, Complete List of Code Contributors,
                       and Citations for Specific Modules
    https://github.com/psi4/psi4/blob/master/codemeta.json
    https://github.com/psi4/psi4/graphs/contributors
    https://psicode.org/psi4manual/master/introduction.html#citing-psifour

    -----------------------------------------------------------------------


    Psi4 started on: Thursday, 18 June 2026 05:06PM

    Process ID: 91803
    Host:       wc-dhcp22d225.employee-secure.wireless.fsu.edu
    PSIDATADIR: /Users/deprince/software/psi4/v1.10/psi4/install/share/psi4
    Memory:     500.0 MiB
    Threads:    1
    Addons:     a̶d̶c̶c̶, a̶m̶b̶i̶t̶, b̶s̶e̶, c̶c̶t̶3̶, c̶f̶o̶u̶r̶, c̶h̶e̶m̶p̶s̶2̶, c̶p̶p̶e̶, d̶d̶x̶,
                d̶f̶t̶d̶3̶, d̶f̶t̶d̶4̶, d̶k̶h̶, e̶c̶p̶i̶n̶t̶, e̶i̶n̶s̶u̶m̶s̶, f̶o̶r̶t̶e̶,
                g̶a̶u̶x̶c̶, g̶c̶p̶, g̶d̶m̶a̶, g̶e̶o̶m̶e̶t̶r̶i̶c̶, g̶p̶u̶_̶d̶f̶c̶c̶,
                i̶n̶t̶e̶g̶r̶a̶t̶o̶r̶x̶x̶, i̶p̶i̶, l̶i̶b̶e̶f̶p̶, m̶d̶i̶, m̶p̶2̶d̶, m̶r̶c̶c̶,
                o̶o̶o̶, o̶p̶e̶n̶f̶e̶r̶m̶i̶o̶n̶p̶s̶i̶4̶, p̶c̶m̶s̶o̶l̶v̶e̶r̶,
                p̶s̶i̶4̶f̶o̶c̶k̶c̶i̶, p̶s̶i̶x̶a̶s̶, r̶e̶s̶p̶, s̶i̶m̶i̶n̶t̶, s̶n̶s̶m̶p̶2̶,
                v̶2̶r̶d̶m̶_̶c̶a̶s̶s̶c̶f̶

  ==> Input File <==

--------------------------------------------------------------------------
# PYTHONPATH must include directory above plugin directory.
#     Define either externally or here, then import plugin.
sys.path.insert(0, '../../..')
import hilbert

molecule mol1 {
         O            0.000000000000     0.000000000000    -0.068516219320
         H            0.000000000000    -0.790689573744     0.543701060715
         H            0.000000000000     0.790689573744     0.543701060715
no_reorient
nocom
symmetry c1
}
molecule mol2 {
         O             0.000000000000    -0.068516219320    0.000000000000
         H            -0.790689573744     0.543701060715    0.000000000000
         H             0.790689573744     0.543701060715    0.000000000000
no_reorient
nocom
symmetry c1
}
molecule mol3 {
         O         -0.068516219320      0.000000000000     0.000000000000
         H          0.543701060715      0.000000000000    -0.790689573744
         H          0.543701060715      0.000000000000     0.790689573744
no_reorient
nocom
symmetry c1
}

activate(mol1)
set {
  basis sto-3g 
  scf_type df 
  e_convergence 1e-10
  d_convergence 1e-10 
} 

# frequency: 2.0 eV
w = 0.07349864501573

# lambda: 0.05
# coupling g = 0.05 / sqrt(2*w)
g = 0.05 / np.sqrt(2.0 * w)

set { 
  maxiter 500
  cavity_frequency         $w
  cavity_coupling_strength [0.0, 0.0, $g]
}

set points 3
set reference uks
set dft_spherical_points 590
set {
    qed_dft_functional 'pbe'
}
g1 = np.asarray(gradient('qed-dft',dertype=0))
g2 = np.asarray(gradient('qed-dft',dertype=1))
diff = g2 - g1

compare_values(0.0, np.linalg.norm(diff), 5, "QED-DFT numerical versus analytic energy gradient (z-pol)") # TEST

activate(mol2)
set basis sto-3g
set hilbert {
    cavity_coupling_strength [0.0, $g, 0.0]
}
g2 = np.asarray(gradient('qed-dft',dertype=1))
g1 = np.roll(g1, shift=(0, -1), axis=(0, 1))
diff = g2 - g1
compare_values(0.0, np.linalg.norm(diff), 5, "QED-DFT numerical versus analytic energy gradient (y-pol)") # TEST

activate(mol3)
set basis sto-3g
set hilbert {
    cavity_coupling_strength [$g, 0.0, 0.0]
}
g2 = np.asarray(gradient('qed-dft',dertype=1))
g1 = np.roll(g1, shift=(0, -1), axis=(0, 1))
diff = g2 - g1
compare_values(0.0, np.linalg.norm(diff), 5, "QED-DFT numerical versus analytic energy gradient (x-pol)") # TEST

--------------------------------------------------------------------------

Scratch directory: /Users/deprince/psi4_scratch/

         ----------------------------------------------------------
                                   FINDIF
                     R. A. King and Jonathon Misiewicz
         ----------------------------------------------------------

  Using finite-differences of energies to determine gradients.
    Generating geometries for use with 3-point formula.
    Displacement size will be 5.00e-03.
    Number of atoms is 3.
    Number of symmetric SALCs is 3.
    Translations projected? 1. Rotations projected? 1.
    Number of geometries (including reference) is 7.
 7 displacements needed ...

  //>>>>>>>>>>>>>>>>>>>>>>>>>>>>>>>>>>>//
  //    FiniteDifference Computations  //
  //<<<<<<<<<<<<<<<<<<<<<<<<<<<<<<<<<<<//


    -----------------------------------------------------------------------
          Psi4: An Open-Source Ab Initio Electronic Structure Package
                               Psi4 1.10 

                         Git: Rev {HEAD} f2492db dirty


    D. G. A. Smith, L. A. Burns, A. C. Simmonett, R. M. Parrish,
    M. C. Schieber, R. Galvelis, P. Kraus, H. Kruse, R. Di Remigio,
    A. Alenaizan, A. M. James, S. Lehtola, J. P. Misiewicz, M. Scheurer,
    R. A. Shaw, J. B. Schriber, Y. Xie, Z. L. Glick, D. A. Sirianni,
    J. S. O'Brien, J. M. Waldrop, A. Kumar, E. G. Hohenstein,
    B. P. Pritchard, B. R. Brooks, H. F. Schaefer III, A. Yu. Sokolov,
    K. Patkowski, A. E. DePrince III, U. Bozkaya, R. A. King,
    F. A. Evangelista, J. M. Turney, T. D. Crawford, C. D. Sherrill,
    J. Chem. Phys. 152(18) 184108 (2020). https://doi.org/10.1063/5.0006002

                            Additional Code Authors
    E. T. Seidl, C. L. Janssen, E. F. Valeev, M. L. Leininger,
    J. F. Gonthier, R. M. Richard, H. R. McAlexander, M. Saitow, X. Wang,
    P. Verma, M. H. Lechner, A. Jiang, S. Behnle, A. G. Heide,
    M. F. Herbst, D. L. Poole, T. Győri, E. C. Mitchell, J. P. Pederson,
    and A. M. Wallace

             Previous Authors, Complete List of Code Contributors,
                       and Citations for Specific Modules
    https://github.com/psi4/psi4/blob/master/codemeta.json
    https://github.com/psi4/psi4/graphs/contributors
    https://psicode.org/psi4manual/master/introduction.html#citing-psifour

    -----------------------------------------------------------------------


    Psi4 started on: Thursday, 18 June 2026 05:06PM

    Process ID: 91803
    Host:       wc-dhcp22d225.employee-secure.wireless.fsu.edu
    PSIDATADIR: /Users/deprince/software/psi4/v1.10/psi4/install/share/psi4
    Memory:     500.0 MiB
    Threads:    1
    Addons:     a̶d̶c̶c̶, a̶m̶b̶i̶t̶, b̶s̶e̶, c̶c̶t̶3̶, c̶f̶o̶u̶r̶, c̶h̶e̶m̶p̶s̶2̶, c̶p̶p̶e̶, d̶d̶x̶,
                d̶f̶t̶d̶3̶, d̶f̶t̶d̶4̶, d̶k̶h̶, e̶c̶p̶i̶n̶t̶, e̶i̶n̶s̶u̶m̶s̶, f̶o̶r̶t̶e̶,
                g̶a̶u̶x̶c̶, g̶c̶p̶, g̶d̶m̶a̶, g̶e̶o̶m̶e̶t̶r̶i̶c̶, g̶p̶u̶_̶d̶f̶c̶c̶,
                i̶n̶t̶e̶g̶r̶a̶t̶o̶r̶x̶x̶, i̶p̶i̶, l̶i̶b̶e̶f̶p̶, m̶d̶i̶, m̶p̶2̶d̶, m̶r̶c̶c̶,
                o̶o̶o̶, o̶p̶e̶n̶f̶e̶r̶m̶i̶o̶n̶p̶s̶i̶4̶, p̶c̶m̶s̶o̶l̶v̶e̶r̶,
                p̶s̶i̶4̶f̶o̶c̶k̶c̶i̶, p̶s̶i̶x̶a̶s̶, r̶e̶s̶p̶, s̶i̶m̶i̶n̶t̶, s̶n̶s̶m̶p̶2̶,
                v̶2̶r̶d̶m̶_̶c̶a̶s̶s̶c̶f̶

  ==> Input QCSchema <==

--------------------------------------------------------------------------
{'driver': 'energy',
 'extras': {'psiapi': True, 'wfn_qcvars_only': True},
 'id': None,
 'keywords': {'CAVITY_COUPLING_STRENGTH': [0.0, 0.0, 0.13041133482178593],
              'CAVITY_FREQUENCY': 0.07349864501573,
              'DFT_SPHERICAL_POINTS': 590,
              'D_CONVERGENCE': 1e-10,
              'E_CONVERGENCE': 1e-10,
              'MAXITER': 500,
              'PARENT_SYMMETRY': 'C1',
              'POINTS': 3,
              'QED_DFT_FUNCTIONAL': 'PBE',
              'REFERENCE': 'UKS',
              'SCF_TYPE': 'DF',
              'function_kwargs': {}},
 'model': {'basis': 'sto-3g', 'method': 'qed-dft'},
 'molecule': {'atom_labels': ['', '', ''],
              'atomic_numbers': [8, 1, 1],
              'extras': {},
              'fix_com': True,
              'fix_orientation': True,
              'fix_symmetry': 'c1',
              'fragment_charges': [0.0],
              'fragment_multiplicities': [1],
              'fragments': [[0, 1, 2]],
              'geometry': [0.0, 0.0, -0.1294768896666024, 0.0, -1.4941867446311508, 1.0274460988722685, 0.0,
                           1.4941867446311508, 1.0274460988722685],
              'mass_numbers': [16, 1, 1],
              'masses': [15.99491461957, 1.00782503223, 1.00782503223],
              'molecular_charge': 0.0,
              'molecular_multiplicity': 1,
              'name': 'mol1',
              'provenance': {'creator': 'QCElemental',
                             'routine': 'qcelemental.molparse.from_string',
                             'version': '0.29.0'},
              'real': [True, True, True],
              'schema_name': 'qcschema_molecule',
              'schema_version': 2,
              'symbols': ['O', 'H', 'H'],
              'validated': True},
 'protocols': {'stdout': True},
 'provenance': {'creator': 'QCElemental', 'routine': 'qcelemental.models.results', 'version': '0.29.0'},
 'schema_name': 'qcschema_input',
 'schema_version': 1}
--------------------------------------------------------------------------

Scratch directory: /Users/deprince/psi4_scratch/

Scratch directory: /Users/deprince/psi4_scratch/
   => Libint2 <=

    Primary   basis highest AM E, G, H:  5, 4, 3
    Auxiliary basis highest AM E, G, H:  6, 5, 4
    Onebody   basis highest AM E, G, H:  6, 5, 4
    Solid Harmonics ordering:            Gaussian

*** tstart() called on wc-dhcp22d225.employee-secure.wireless.fsu.edu
*** at Thu Jun 18 17:06:03 2026

   => Loading Basis Set <=

    Name: STO-3G
    Role: ORBITAL
    Keyword: BASIS
    atoms 1   entry O          line    81 file /Users/deprince/software/psi4/v1.10/psi4/install/share/psi4/basis/sto-3g.gbs 
    atoms 2-3 entry H          line    19 file /Users/deprince/software/psi4/v1.10/psi4/install/share/psi4/basis/sto-3g.gbs 


         ---------------------------------------------------------
                                   SCF
               by Justin Turney, Rob Parrish, Andy Simmonett
                          and Daniel G. A. Smith
                              UKS Reference
                        1 Threads,    500 MiB Core
         ---------------------------------------------------------

  ==> Geometry <==

    Molecular point group: c1
    Full point group: C2v

    Geometry (in Bohr), charge = 0, multiplicity = 1:

       Center              X                  Y                   Z               Mass       
    ------------   -----------------  -----------------  -----------------  -----------------
         O            0.000000000000     0.000000000000    -0.129476889667    15.994914619570
         H            0.000000000000    -1.494186744631     1.027446098872     1.007825032230
         H            0.000000000000     1.494186744631     1.027446098872     1.007825032230

  Running in c1 symmetry.

  Rotational constants: A =     25.12555  B =     13.37733  C =      8.72955 [cm^-1]
  Rotational constants: A = 753245.07149  B = 401042.16706  C = 261705.25473 [MHz]
  Nuclear repulsion =    8.801465564563406

  Charge       = 0
  Multiplicity = 1
  Electrons    = 10
  Nalpha       = 5
  Nbeta        = 5

  ==> Algorithm <==

  SCF Algorithm Type is DF.
  DIIS enabled.
  MOM disabled.
  Fractional occupation disabled.
  Guess Type is SAD.
  Energy threshold   = 1.00e-10
  Density threshold  = 1.00e-10
  Integral threshold = 1.00e-12

  ==> Primary Basis <==

  Basis Set: STO-3G
    Blend: STO-3G
    Number of shells: 5
    Number of basis functions: 7
    Number of Cartesian functions: 7
    Spherical Harmonics?: true
    Max angular momentum: 1

  ==> DFT Potential <==

   => LibXC <=

    Version 7.0.0
    S. Lehtola, C. Steigemann, M. J.T. Oliveira, and M. A.L. Marques.,  SoftwareX 7, 1–5 (2018) (10.1016/j.softx.2017.11.002)

   => Composite Functional: PBE <= 

    PBE GGA Exchange-Correlation Functional

    J.P. Perdew et. al., Phys. Rev. Lett., 77(18), 3865-3868, 1996


    Deriv               =              1
    GGA                 =           TRUE
    Meta                =          FALSE

    Exchange Hybrid     =          FALSE
    MP2 Hybrid          =          FALSE

   => Exchange Functionals <=

    1.0000     XC_GGA_X_PBE

   => Correlation Functionals <=

    1.0000     XC_GGA_C_PBE

   => LibXC Density Thresholds  <==

    XC_GGA_C_PBE:  1.00E-12 
    XC_GGA_X_PBE:  1.00E-15 

   => Molecular Quadrature <=

    Radial Scheme          =       TREUTLER
    Pruning Scheme         =           NONE
    Nuclear Scheme         =       TREUTLER

    Blocking Scheme        =         OCTREE
    BS radius alpha        =              1
    Pruning alpha          =              1
    Radial Points          =             75
    Spherical Points       =            590
    Total Points           =         128485
    Total Blocks           =           1016
    Max Points             =            256
    Max Functions          =              7
    Weights Tolerance      =       1.00E-15

   => Loading Basis Set <=

    Name: (STO-3G AUX)
    Role: JKFIT
    Keyword: DF_BASIS_SCF
    atoms 1   entry O          line   318 file /Users/deprince/software/psi4/v1.10/psi4/install/share/psi4/basis/def2-universal-jkfit.gbs 
    atoms 2-3 entry H          line    18 file /Users/deprince/software/psi4/v1.10/psi4/install/share/psi4/basis/def2-universal-jkfit.gbs 

  ==> Integral Setup <==

  DFHelper Memory: AOs need 0.000 GiB; user supplied 0.341 GiB. 
  SCF_SUBTYPE=INCORE selected. In-core MEM_DF algorithm will be used.
  Using in-core AOs.

  ==> MemDFJK: Density-Fitted J/K Matrices <==

    J tasked:                   Yes
    K tasked:                    No
    wK tasked:                   No
    OpenMP threads:               1
    Memory [MiB]:               348
    Algorithm:                 Core
    Schwarz Cutoff:           1E-12
    Mask sparsity (%):       0.0000
    Fitting Condition:        1E-10

   => Auxiliary Basis Set <=

  Basis Set: (STO-3G AUX)
    Blend: DEF2-UNIVERSAL-JKFIT
    Number of shells: 37
    Number of basis functions: 113
    Number of Cartesian functions: 133
    Spherical Harmonics?: true
    Max angular momentum: 4

  Cached 100.0% of DFT collocation blocks in 0.026 [GiB].

  Minimum eigenvalue in the overlap matrix is 3.7028400386E-01.
  Reciprocal condition number of the overlap matrix is 1.9726983142E-01.
    Using symmetric orthogonalization.

  ==> Pre-Iterations <==

  SCF Guess: Superposition of Atomic Densities via on-the-fly atomic UHF (no occupation information).

   -------------------------
    Irrep   Nso     Nmo    
   -------------------------
     A          7       7 
   -------------------------
    Total       7       7
   -------------------------

  ==> Iterations <==

                           Total Energy        Delta E     RMS |[F,P]|

   @DF-UKS iter SAD:   -74.56149902687355   -7.45615e+01   0.00000e+00 
   @DF-UKS iter   1:   -75.01273737053602   -4.51238e-01   8.35825e-02 DIIS/ADIIS
   @DF-UKS iter   2:   -75.02743968713688   -1.47023e-02   7.57604e-02 DIIS/ADIIS
   @DF-UKS iter   3:   -75.23420950198363   -2.06770e-01   2.57199e-03 DIIS/ADIIS
   @DF-UKS iter   4:   -75.23445870298397   -2.49201e-04   1.73841e-04 DIIS/ADIIS
   @DF-UKS iter   5:   -75.23445987726616   -1.17428e-06   2.49319e-06 DIIS
   @DF-UKS iter   6:   -75.23445987751987   -2.53706e-10   7.97584e-08 DIIS
   @DF-UKS iter   7:   -75.23445987752012   -2.55795e-13   1.11720e-09 DIIS
   @DF-UKS iter   8:   -75.23445987752014   -1.42109e-14   1.24526e-12 DIIS
  Energy and wave function converged.


  ==> Post-Iterations <==

   Electrons on quadrature grid:
      Nalpha   =    4.9999999892 ; deviation = -1.082e-08
      Nbeta    =    4.9999999892 ; deviation = -1.082e-08
      Ntotal   =    9.9999999784 ; deviation = -2.163e-08 

   @Spin Contamination Metric:   8.881784197E-16
   @S^2 Expected:                0.000000000E+00
   @S^2 Observed:                8.881784197E-16
   @S   Expected:                0.000000000E+00
   @S   Observed:                0.000000000E+00

    Orbital Energies [Eh]
    ---------------------

    Alpha Occupied:                                                       

       1A    -18.449577     2A     -0.823944     3A     -0.373373  
       4A     -0.166443     5A     -0.063691  

    Alpha Virtual:                                                        

       6A      0.273448     7A      0.377222  

    Beta Occupied:                                                        

       1A    -18.449577     2A     -0.823944     3A     -0.373373  
       4A     -0.166443     5A     -0.063691  

    Beta Virtual:                                                         

       6A      0.273448     7A      0.377222  

    Final Occupation by Irrep:
              A 
    DOCC [     5 ]
    SOCC [     0 ]
    NA   [     5 ]
    NB   [     5 ]

  @DF-UKS Final Energy:   -75.23445987752014

   => Energetics <=

    Nuclear Repulsion Energy =              8.8014655645634061
    One-Electron Energy =                -121.6599724528065849
    Two-Electron Energy =                  46.9576381732490660
    DFT Exchange-Correlation Energy =      -9.3335911625260231
    Empirical Dispersion Energy =           0.0000000000000000
    VV10 Nonlocal Energy =                  0.0000000000000000
    Total Energy =                        -75.2344598775201376

  UHF NO Occupations:
  HONO-2 :    3  A 2.0000000
  HONO-1 :    4  A 2.0000000
  HONO-0 :    5  A 2.0000000
  LUNO+0 :    6  A -0.0000000
  LUNO+1 :    7  A -0.0000000


Computation Completed


Properties will be evaluated at   0.000000,   0.000000,   0.000000 [a0]

Properties computed using the SCF density matrix


 Multipole Moments:

 ------------------------------------------------------------------------------------
     Multipole            Electronic (a.u.)      Nuclear  (a.u.)        Total (a.u.)
 ------------------------------------------------------------------------------------

 L = 1.  Multiply by 2.5417464519 to convert [e a0] to [Debye]
 Dipole X            :         -0.0000000            0.0000000           -0.0000000
 Dipole Y            :         -0.0000000            0.0000000           -0.0000000
 Dipole Z            :         -0.3962941            1.0190771            0.6227830
 Magnitude           :                                                    0.6227830

 ------------------------------------------------------------------------------------

*** tstop() called on wc-dhcp22d225.employee-secure.wireless.fsu.edu at Thu Jun 18 17:06:04 2026
Module time:
	user time   =       0.89 seconds =       0.01 minutes
	system time =       0.06 seconds =       0.00 minutes
	total time  =          1 seconds =       0.02 minutes
Total time:
	user time   =       0.89 seconds =       0.01 minutes
	system time =       0.06 seconds =       0.00 minutes
	total time  =          1 seconds =       0.02 minutes
   => Loading Basis Set <=

    Name: (STO-3G AUX)
    Role: JKFIT
    Keyword: DF_BASIS_SCF
    atoms 1   entry O          line   318 file /Users/deprince/software/psi4/v1.10/psi4/install/share/psi4/basis/def2-universal-jkfit.gbs 
    atoms 2-3 entry H          line    18 file /Users/deprince/software/psi4/v1.10/psi4/install/share/psi4/basis/def2-universal-jkfit.gbs 

   => Loading Basis Set <=

    Name: (STO-3G AUX)
    Role: RIFIT
    Keyword: DF_BASIS_CC
    atoms 1   entry O          line   233 file /Users/deprince/software/psi4/v1.10/psi4/install/share/psi4/basis/def2-svp-ri.gbs 
    atoms 2-3 entry H          line    22 file /Users/deprince/software/psi4/v1.10/psi4/install/share/psi4/basis/def2-svp-ri.gbs 


Reading options from the HILBERT block
Calling plugin hilbert.so.


Plugins that use gradients: set Da, Db, and Lagrangian for gradient theory on the wavefunction. The old way of passing these will stop working as soon as 1.8.    Molecular point group: c1
    Full point group: C2v

    Geometry (in Bohr), charge = 0, multiplicity = 1:

       Center              X                  Y                   Z               Mass       
    ------------   -----------------  -----------------  -----------------  -----------------
         O            0.000000000000     0.000000000000    -0.129476889667    15.994914619570
         H            0.000000000000    -1.494186744631     1.027446098872     1.007825032230
         H            0.000000000000     1.494186744631     1.027446098872     1.007825032230

  -AO BASIS SET INFORMATION:
    Name                   = STO-3G
    Blend                  = STO-3G
    Total number of shells = 5
    Number of primitives   = 15
    Number of AO           = 7
    Number of SO           = 7
    Maximum AM             = 1
    Spherical Harmonics    = TRUE

  -Contraction Scheme:
    Atom   Type   All Primitives // Shells:
   ------ ------ --------------------------
       1     O     6s 3p // 2s 1p 
       2     H     3s // 1s 
       3     H     3s // 1s 

  ==> AO Basis Functions <==

    [ STO-3G ]
    spherical
    ****
    O   1
    S   3 1.00
                       130.70932000           0.15432897
                        23.80886100           0.53532814
                         6.44360830           0.44463454
    S   3 1.00
                         5.03315130          -0.09996723
                         1.16959610           0.39951283
                         0.38038900           0.70011547
    P   3 1.00
                         5.03315130           0.15591627
                         1.16959610           0.60768372
                         0.38038900           0.39195739
    ****
    H   2
    S   3 1.00
                         3.42525091           0.15432897
                         0.62391373           0.53532814
                         0.16885540           0.44463454
    ****
    H   3
    S   3 1.00
                         3.42525091           0.15432897
                         0.62391373           0.53532814
                         0.16885540           0.44463454
    ****



        *******************************************************
        *                                                     *
        *                                                     *
        *    Polaritonic UKS                                  *
        *                                                     *
        *                                                     *
        *******************************************************
    Molecular point group: c1
    Full point group: C2v

    Geometry (in Bohr), charge = 0, multiplicity = 1:

       Center              X                  Y                   Z               Mass       
    ------------   -----------------  -----------------  -----------------  -----------------
         O            0.000000000000     0.000000000000    -0.129476889667    15.994914619570
         H            0.000000000000    -1.494186744631     1.027446098872     1.007825032230
         H            0.000000000000     1.494186744631     1.027446098872     1.007825032230

  -AO BASIS SET INFORMATION:
    Name                   = STO-3G
    Blend                  = STO-3G
    Total number of shells = 5
    Number of primitives   = 15
    Number of AO           = 7
    Number of SO           = 7
    Maximum AM             = 1
    Spherical Harmonics    = TRUE

  -Contraction Scheme:
    Atom   Type   All Primitives // Shells:
   ------ ------ --------------------------
       1     O     6s 3p // 2s 1p 
       2     H     3s // 1s 
       3     H     3s // 1s 

  ==> AO Basis Functions <==

    [ STO-3G ]
    spherical
    ****
    O   1
    S   3 1.00
                       130.70932000           0.15432897
                        23.80886100           0.53532814
                         6.44360830           0.44463454
    S   3 1.00
                         5.03315130          -0.09996723
                         1.16959610           0.39951283
                         0.38038900           0.70011547
    P   3 1.00
                         5.03315130           0.15591627
                         1.16959610           0.60768372
                         0.38038900           0.39195739
    ****
    H   2
    S   3 1.00
                         3.42525091           0.15432897
                         0.62391373           0.53532814
                         0.16885540           0.44463454
    ****
    H   3
    S   3 1.00
                         3.42525091           0.15432897
                         0.62391373           0.53532814
                         0.16885540           0.44463454
    ****

  ==> DFT Potential <==

   => LibXC <=

    Version 7.0.0
    S. Lehtola, C. Steigemann, M. J.T. Oliveira, and M. A.L. Marques.,  SoftwareX 7, 1–5 (2018) (10.1016/j.softx.2017.11.002)

   => Composite Functional: PBE <= 

    PBE GGA Exchange-Correlation Functional

    J.P. Perdew et. al., Phys. Rev. Lett., 77(18), 3865-3868, 1996


    Deriv               =              1
    GGA                 =           TRUE
    Meta                =          FALSE

    Exchange Hybrid     =          FALSE
    MP2 Hybrid          =          FALSE

   => Exchange Functionals <=

    1.0000     XC_GGA_X_PBE

   => Correlation Functionals <=

    1.0000     XC_GGA_C_PBE

   => LibXC Density Thresholds  <==

    XC_GGA_C_PBE:  1.00E-12 
    XC_GGA_X_PBE:  1.00E-15 

   => Molecular Quadrature <=

    Radial Scheme          =       TREUTLER
    Pruning Scheme         =           NONE
    Nuclear Scheme         =       TREUTLER

    Blocking Scheme        =         OCTREE
    BS radius alpha        =              1
    Pruning alpha          =              1
    Radial Points          =             75
    Spherical Points       =            590
    Total Points           =         128485
    Total Blocks           =           1016
    Max Points             =            256
    Max Functions          =              7
    Weights Tolerance      =       1.00E-15


    No. basis functions:                7
    No. auxiliary basis functions:    113
    No. alpha electrons:                5
    No. beta electrons:                 5
    e_convergence:              1.000e-10
    d_convergence:              1.000e-10
    maxiter:                          500



    Guess energy:      -71.905353227232

    ==>  Begin SCF Iterations <==

     Iter               energy                   dE          RMS |[F,P]| 
        0     -75.229824675108      -3.324471447876       0.000159277368
        1     -75.229825688447      -0.000001013340       0.000145763492
        2     -75.229825470651       0.000000217796       0.000170573899
        3     -75.229825168403       0.000000302248       0.000196053711
        4     -75.229826432842      -0.000001264439       0.000000293054
        5     -75.229826432846      -0.000000000004       0.000000003645
        6     -75.229826432846       0.000000000000       0.000000000032

    SCF iterations converged!


    ==> dipole self-energy: 1/2 lambda^2 ( <mu_e^2> - <mu_e>^2 ) <==

    one-electron part;        0.007660100703
    two-electron part:       -0.003028410415
    total:                    0.004631690288


    ==> dipole integrals <== 

    <mu_x> =      -0.000000000000
    <mu_y> =       0.000000000000
    <mu_z> =      -0.393889524108


    ==> dipole variance: ( <mu_e^2> - <mu_e>^2 ) <== 

    one electron (xx):       4.562898930324
    one electron (xy):       0.000000000000
    one electron (xz):      -0.000000000000
    one electron (yy):       7.716846890646
    one electron (yz):      -0.000000000000
    one electron (zz):       6.128080562260

    two electron (xx):      -1.672234233766
    two electron (xy):      -0.000000000000
    two electron (xz):       0.000000000000
    two electron (yy):      -3.328195742567
    two electron (yz):      -0.000000000000
    two electron (zz):      -2.422728331753

    total (xx):              2.890664696558
    total (xy):              0.000000000000
    total (xz):              0.000000000000
    total (yy):              4.388651148079
    total (yz):             -0.000000000000
    total (zz):              3.705352230507

    * Polaritonic UKS total energy:     -75.229826432846

    * Polaritonic Dipole Moment:      -0.000000000000       0.000000000000      -0.393889524108
    *     Nuclear Dipole Moment:       0.000000000000       0.000000000000       1.019077080412
    *       Total Dipole Moment:      -0.000000000000       0.000000000000       0.625187556304
    *                 Magnitude:       0.625187556304


 #  #
 Irrep: 1
      1:  -18.448921040822398
      2:   -0.824201709224504
      3:   -0.372582289435382
      4:   -0.165714119941029
      5:   -0.062972969892829
      6:    0.274797602790935
      7:    0.377916341855192


 #  #
 Irrep: 1
      1:  -18.448921040822398
      2:   -0.824201709224504
      3:   -0.372582289435382
      4:   -0.165714119941029
      5:   -0.062972969892829
      6:    0.274797602790935
      7:    0.377916341855192


    Psi4 stopped on: Thursday, 18 June 2026 05:06PM
    Psi4 wall time for execution: 0:00:01.59


    -----------------------------------------------------------------------
          Psi4: An Open-Source Ab Initio Electronic Structure Package
                               Psi4 1.10 

                         Git: Rev {HEAD} f2492db dirty


    D. G. A. Smith, L. A. Burns, A. C. Simmonett, R. M. Parrish,
    M. C. Schieber, R. Galvelis, P. Kraus, H. Kruse, R. Di Remigio,
    A. Alenaizan, A. M. James, S. Lehtola, J. P. Misiewicz, M. Scheurer,
    R. A. Shaw, J. B. Schriber, Y. Xie, Z. L. Glick, D. A. Sirianni,
    J. S. O'Brien, J. M. Waldrop, A. Kumar, E. G. Hohenstein,
    B. P. Pritchard, B. R. Brooks, H. F. Schaefer III, A. Yu. Sokolov,
    K. Patkowski, A. E. DePrince III, U. Bozkaya, R. A. King,
    F. A. Evangelista, J. M. Turney, T. D. Crawford, C. D. Sherrill,
    J. Chem. Phys. 152(18) 184108 (2020). https://doi.org/10.1063/5.0006002

                            Additional Code Authors
    E. T. Seidl, C. L. Janssen, E. F. Valeev, M. L. Leininger,
    J. F. Gonthier, R. M. Richard, H. R. McAlexander, M. Saitow, X. Wang,
    P. Verma, M. H. Lechner, A. Jiang, S. Behnle, A. G. Heide,
    M. F. Herbst, D. L. Poole, T. Győri, E. C. Mitchell, J. P. Pederson,
    and A. M. Wallace

             Previous Authors, Complete List of Code Contributors,
                       and Citations for Specific Modules
    https://github.com/psi4/psi4/blob/master/codemeta.json
    https://github.com/psi4/psi4/graphs/contributors
    https://psicode.org/psi4manual/master/introduction.html#citing-psifour

    -----------------------------------------------------------------------


    Psi4 started on: Thursday, 18 June 2026 05:06PM

    Process ID: 91803
    Host:       wc-dhcp22d225.employee-secure.wireless.fsu.edu
    PSIDATADIR: /Users/deprince/software/psi4/v1.10/psi4/install/share/psi4
    Memory:     500.0 MiB
    Threads:    1
    Addons:     a̶d̶c̶c̶, a̶m̶b̶i̶t̶, b̶s̶e̶, c̶c̶t̶3̶, c̶f̶o̶u̶r̶, c̶h̶e̶m̶p̶s̶2̶, c̶p̶p̶e̶, d̶d̶x̶,
                d̶f̶t̶d̶3̶, d̶f̶t̶d̶4̶, d̶k̶h̶, e̶c̶p̶i̶n̶t̶, e̶i̶n̶s̶u̶m̶s̶, f̶o̶r̶t̶e̶,
                g̶a̶u̶x̶c̶, g̶c̶p̶, g̶d̶m̶a̶, g̶e̶o̶m̶e̶t̶r̶i̶c̶, g̶p̶u̶_̶d̶f̶c̶c̶,
                i̶n̶t̶e̶g̶r̶a̶t̶o̶r̶x̶x̶, i̶p̶i̶, l̶i̶b̶e̶f̶p̶, m̶d̶i̶, m̶p̶2̶d̶, m̶r̶c̶c̶,
                o̶o̶o̶, o̶p̶e̶n̶f̶e̶r̶m̶i̶o̶n̶p̶s̶i̶4̶, p̶c̶m̶s̶o̶l̶v̶e̶r̶,
                p̶s̶i̶4̶f̶o̶c̶k̶c̶i̶, p̶s̶i̶x̶a̶s̶, r̶e̶s̶p̶, s̶i̶m̶i̶n̶t̶, s̶n̶s̶m̶p̶2̶,
                v̶2̶r̶d̶m̶_̶c̶a̶s̶s̶c̶f̶

  ==> Input QCSchema <==

--------------------------------------------------------------------------
{'driver': 'energy',
 'extras': {'psiapi': True, 'wfn_qcvars_only': True},
 'id': None,
 'keywords': {'CAVITY_COUPLING_STRENGTH': [0.0, 0.0, 0.13041133482178593],
              'CAVITY_FREQUENCY': 0.07349864501573,
              'DFT_SPHERICAL_POINTS': 590,
              'D_CONVERGENCE': 1e-10,
              'E_CONVERGENCE': 1e-10,
              'MAXITER': 500,
              'PARENT_SYMMETRY': 'C1',
              'POINTS': 3,
              'QED_DFT_FUNCTIONAL': 'PBE',
              'REFERENCE': 'UKS',
              'SCF_TYPE': 'DF',
              'function_kwargs': {'write_orbitals': False}},
 'model': {'basis': 'sto-3g', 'method': 'qed-dft'},
 'molecule': {'atom_labels': ['', '', ''],
              'atomic_numbers': [8, 1, 1],
              'extras': {},
              'fix_com': True,
              'fix_orientation': True,
              'fix_symmetry': 'c1',
              'fragment_charges': [0.0],
              'fragment_multiplicities': [1],
              'fragments': [[0, 1, 2]],
              'geometry': [0.0, -0.00033785795355509947, -0.1294768896666024, 0.0, -1.4915057191813765,
                           1.0253702271736025, 0.0, 1.496867770080925, 1.0295219705709344],
              'mass_numbers': [16, 1, 1],
              'masses': [15.99491461957, 1.00782503223, 1.00782503223],
              'molecular_charge': 0.0,
              'molecular_multiplicity': 1,
              'name': 'mol1',
              'provenance': {'creator': 'QCElemental',
                             'routine': 'qcelemental.molparse.from_string',
                             'version': '0.29.0'},
              'real': [True, True, True],
              'schema_name': 'qcschema_molecule',
              'schema_version': 2,
              'symbols': ['O', 'H', 'H'],
              'validated': True},
 'protocols': {'stdout': True},
 'provenance': {'creator': 'QCElemental', 'routine': 'qcelemental.models.results', 'version': '0.29.0'},
 'schema_name': 'qcschema_input',
 'schema_version': 1}
--------------------------------------------------------------------------

Scratch directory: /Users/deprince/psi4_scratch/

Scratch directory: /Users/deprince/psi4_scratch/
   => Libint2 <=

    Primary   basis highest AM E, G, H:  5, 4, 3
    Auxiliary basis highest AM E, G, H:  6, 5, 4
    Onebody   basis highest AM E, G, H:  6, 5, 4
    Solid Harmonics ordering:            Gaussian

*** tstart() called on wc-dhcp22d225.employee-secure.wireless.fsu.edu
*** at Thu Jun 18 17:06:04 2026

   => Loading Basis Set <=

    Name: STO-3G
    Role: ORBITAL
    Keyword: BASIS
    atoms 1   entry O          line    81 file /Users/deprince/software/psi4/v1.10/psi4/install/share/psi4/basis/sto-3g.gbs 
    atoms 2-3 entry H          line    19 file /Users/deprince/software/psi4/v1.10/psi4/install/share/psi4/basis/sto-3g.gbs 


         ---------------------------------------------------------
                                   SCF
               by Justin Turney, Rob Parrish, Andy Simmonett
                          and Daniel G. A. Smith
                              UKS Reference
                        1 Threads,    500 MiB Core
         ---------------------------------------------------------

  ==> Geometry <==

    Molecular point group: c1
    Full point group: Cs

    Geometry (in Bohr), charge = 0, multiplicity = 1:

       Center              X                  Y                   Z               Mass       
    ------------   -----------------  -----------------  -----------------  -----------------
         O            0.000000000000    -0.000337857954    -0.129476889667    15.994914619570
         H            0.000000000000    -1.491505719181     1.025370227174     1.007825032230
         H            0.000000000000     1.496867770081     1.029521970571     1.007825032230

  Running in c1 symmetry.

  Rotational constants: A =     25.12624  B =     13.37706  C =      8.72952 [cm^-1]
  Rotational constants: A = 753265.70068  B = 401034.09167  C = 261704.30599 [MHz]
  Nuclear repulsion =    8.801496914678173

  Charge       = 0
  Multiplicity = 1
  Electrons    = 10
  Nalpha       = 5
  Nbeta        = 5

  ==> Algorithm <==

  SCF Algorithm Type is DF.
  DIIS enabled.
  MOM disabled.
  Fractional occupation disabled.
  Guess Type is SAD.
  Energy threshold   = 1.00e-10
  Density threshold  = 1.00e-10
  Integral threshold = 1.00e-12

  ==> Primary Basis <==

  Basis Set: STO-3G
    Blend: STO-3G
    Number of shells: 5
    Number of basis functions: 7
    Number of Cartesian functions: 7
    Spherical Harmonics?: true
    Max angular momentum: 1

  ==> DFT Potential <==

   => LibXC <=

    Version 7.0.0
    S. Lehtola, C. Steigemann, M. J.T. Oliveira, and M. A.L. Marques.,  SoftwareX 7, 1–5 (2018) (10.1016/j.softx.2017.11.002)

   => Composite Functional: PBE <= 

    PBE GGA Exchange-Correlation Functional

    J.P. Perdew et. al., Phys. Rev. Lett., 77(18), 3865-3868, 1996


    Deriv               =              1
    GGA                 =           TRUE
    Meta                =          FALSE

    Exchange Hybrid     =          FALSE
    MP2 Hybrid          =          FALSE

   => Exchange Functionals <=

    1.0000     XC_GGA_X_PBE

   => Correlation Functionals <=

    1.0000     XC_GGA_C_PBE

   => LibXC Density Thresholds  <==

    XC_GGA_C_PBE:  1.00E-12 
    XC_GGA_X_PBE:  1.00E-15 

   => Molecular Quadrature <=

    Radial Scheme          =       TREUTLER
    Pruning Scheme         =           NONE
    Nuclear Scheme         =       TREUTLER

    Blocking Scheme        =         OCTREE
    BS radius alpha        =              1
    Pruning alpha          =              1
    Radial Points          =             75
    Spherical Points       =            590
    Total Points           =         128481
    Total Blocks           =           1014
    Max Points             =            256
    Max Functions          =              7
    Weights Tolerance      =       1.00E-15

   => Loading Basis Set <=

    Name: (STO-3G AUX)
    Role: JKFIT
    Keyword: DF_BASIS_SCF
    atoms 1   entry O          line   318 file /Users/deprince/software/psi4/v1.10/psi4/install/share/psi4/basis/def2-universal-jkfit.gbs 
    atoms 2-3 entry H          line    18 file /Users/deprince/software/psi4/v1.10/psi4/install/share/psi4/basis/def2-universal-jkfit.gbs 

  ==> Integral Setup <==

  DFHelper Memory: AOs need 0.000 GiB; user supplied 0.341 GiB. 
  SCF_SUBTYPE=INCORE selected. In-core MEM_DF algorithm will be used.
  Using in-core AOs.

  ==> MemDFJK: Density-Fitted J/K Matrices <==

    J tasked:                   Yes
    K tasked:                    No
    wK tasked:                   No
    OpenMP threads:               1
    Memory [MiB]:               348
    Algorithm:                 Core
    Schwarz Cutoff:           1E-12
    Mask sparsity (%):       0.0000
    Fitting Condition:        1E-10

   => Auxiliary Basis Set <=

  Basis Set: (STO-3G AUX)
    Blend: DEF2-UNIVERSAL-JKFIT
    Number of shells: 37
    Number of basis functions: 113
    Number of Cartesian functions: 133
    Spherical Harmonics?: true
    Max angular momentum: 4

  Cached 100.0% of DFT collocation blocks in 0.026 [GiB].

  Minimum eigenvalue in the overlap matrix is 3.7025904010E-01.
  Reciprocal condition number of the overlap matrix is 1.9725612383E-01.
    Using symmetric orthogonalization.

  ==> Pre-Iterations <==

  SCF Guess: Superposition of Atomic Densities via on-the-fly atomic UHF (no occupation information).

   -------------------------
    Irrep   Nso     Nmo    
   -------------------------
     A          7       7 
   -------------------------
    Total       7       7
   -------------------------

  ==> Iterations <==

                           Total Energy        Delta E     RMS |[F,P]|

   @DF-UKS iter SAD:   -74.56150951309408   -7.45615e+01   0.00000e+00 
   @DF-UKS iter   1:   -75.01272574150241   -4.51216e-01   8.35827e-02 DIIS/ADIIS
   @DF-UKS iter   2:   -75.02742365276974   -1.46979e-02   7.57609e-02 DIIS/ADIIS
   @DF-UKS iter   3:   -75.23420144649820   -2.06778e-01   2.57163e-03 DIIS/ADIIS
   @DF-UKS iter   4:   -75.23445058373747   -2.49137e-04   1.73850e-04 DIIS/ADIIS
   @DF-UKS iter   5:   -75.23445175829289   -1.17456e-06   2.85140e-06 DIIS
   @DF-UKS iter   6:   -75.23445175862607   -3.33173e-10   6.61588e-07 DIIS
   @DF-UKS iter   7:   -75.23445175864953   -2.34621e-11   2.86847e-08 DIIS
   @DF-UKS iter   8:   -75.23445175864958   -5.68434e-14   9.64332e-10 DIIS
   @DF-UKS iter   9:   -75.23445175864963   -4.26326e-14   8.11608e-11 DIIS
  Energy and wave function converged.


  ==> Post-Iterations <==

   Electrons on quadrature grid:
      Nalpha   =    4.9999999892 ; deviation = -1.077e-08
      Nbeta    =    4.9999999892 ; deviation = -1.077e-08
      Ntotal   =    9.9999999785 ; deviation = -2.154e-08 

   @Spin Contamination Metric:  -8.881784197E-16
   @S^2 Expected:                0.000000000E+00
   @S^2 Observed:               -8.881784197E-16
   @S   Expected:                0.000000000E+00
   @S   Observed:                0.000000000E+00

    Orbital Energies [Eh]
    ---------------------

    Alpha Occupied:                                                       

       1A    -18.449578     2A     -0.823949     3A     -0.373372  
       4A     -0.166443     5A     -0.063691  

    Alpha Virtual:                                                        

       6A      0.273422     7A      0.377253  

    Beta Occupied:                                                        

       1A    -18.449578     2A     -0.823949     3A     -0.373372  
       4A     -0.166443     5A     -0.063691  

    Beta Virtual:                                                         

       6A      0.273422     7A      0.377253  

    Final Occupation by Irrep:
              A 
    DOCC [     5 ]
    SOCC [     0 ]
    NA   [     5 ]
    NB   [     5 ]

  @DF-UKS Final Energy:   -75.23445175864963

   => Energetics <=

    Nuclear Repulsion Energy =              8.8014969146781734
    One-Electron Energy =                -121.6600098604350251
    Two-Electron Energy =                  46.9576547374578084
    DFT Exchange-Correlation Energy =      -9.3335935503505887
    Empirical Dispersion Energy =           0.0000000000000000
    VV10 Nonlocal Energy =                  0.0000000000000000
    Total Energy =                        -75.2344517586496266

  UHF NO Occupations:
  HONO-2 :    3  A 2.0000000
  HONO-1 :    4  A 2.0000000
  HONO-0 :    5  A 2.0000000
  LUNO+0 :    6  A 0.0000000
  LUNO+1 :    7  A -0.0000000


Computation Completed


Properties will be evaluated at   0.000000,   0.000000,   0.000000 [a0]

Properties computed using the SCF density matrix


 Multipole Moments:

 ------------------------------------------------------------------------------------
     Multipole            Electronic (a.u.)      Nuclear  (a.u.)        Total (a.u.)
 ------------------------------------------------------------------------------------

 L = 1.  Multiply by 2.5417464519 to convert [e a0] to [Debye]
 Dipole X            :         -0.0000000            0.0000000           -0.0000000
 Dipole Y            :         -0.0036704            0.0026592           -0.0010112
 Dipole Z            :         -0.3962919            1.0190771            0.6227852
 Magnitude           :                                                    0.6227860

 ------------------------------------------------------------------------------------

*** tstop() called on wc-dhcp22d225.employee-secure.wireless.fsu.edu at Thu Jun 18 17:06:05 2026
Module time:
	user time   =       0.70 seconds =       0.01 minutes
	system time =       0.02 seconds =       0.00 minutes
	total time  =          1 seconds =       0.02 minutes
Total time:
	user time   =       2.19 seconds =       0.04 minutes
	system time =       0.10 seconds =       0.00 minutes
	total time  =          2 seconds =       0.03 minutes
   => Loading Basis Set <=

    Name: (STO-3G AUX)
    Role: JKFIT
    Keyword: DF_BASIS_SCF
    atoms 1   entry O          line   318 file /Users/deprince/software/psi4/v1.10/psi4/install/share/psi4/basis/def2-universal-jkfit.gbs 
    atoms 2-3 entry H          line    18 file /Users/deprince/software/psi4/v1.10/psi4/install/share/psi4/basis/def2-universal-jkfit.gbs 

   => Loading Basis Set <=

    Name: (STO-3G AUX)
    Role: RIFIT
    Keyword: DF_BASIS_CC
    atoms 1   entry O          line   233 file /Users/deprince/software/psi4/v1.10/psi4/install/share/psi4/basis/def2-svp-ri.gbs 
    atoms 2-3 entry H          line    22 file /Users/deprince/software/psi4/v1.10/psi4/install/share/psi4/basis/def2-svp-ri.gbs 


Reading options from the HILBERT block
Calling plugin hilbert.so.


Plugins that use gradients: set Da, Db, and Lagrangian for gradient theory on the wavefunction. The old way of passing these will stop working as soon as 1.8.    Molecular point group: c1
    Full point group: Cs

    Geometry (in Bohr), charge = 0, multiplicity = 1:

       Center              X                  Y                   Z               Mass       
    ------------   -----------------  -----------------  -----------------  -----------------
         O            0.000000000000    -0.000337857954    -0.129476889667    15.994914619570
         H            0.000000000000    -1.491505719181     1.025370227174     1.007825032230
         H            0.000000000000     1.496867770081     1.029521970571     1.007825032230

  -AO BASIS SET INFORMATION:
    Name                   = STO-3G
    Blend                  = STO-3G
    Total number of shells = 5
    Number of primitives   = 15
    Number of AO           = 7
    Number of SO           = 7
    Maximum AM             = 1
    Spherical Harmonics    = TRUE

  -Contraction Scheme:
    Atom   Type   All Primitives // Shells:
   ------ ------ --------------------------
       1     O     6s 3p // 2s 1p 
       2     H     3s // 1s 
       3     H     3s // 1s 

  ==> AO Basis Functions <==

    [ STO-3G ]
    spherical
    ****
    O   1
    S   3 1.00
                       130.70932000           0.15432897
                        23.80886100           0.53532814
                         6.44360830           0.44463454
    S   3 1.00
                         5.03315130          -0.09996723
                         1.16959610           0.39951283
                         0.38038900           0.70011547
    P   3 1.00
                         5.03315130           0.15591627
                         1.16959610           0.60768372
                         0.38038900           0.39195739
    ****
    H   2
    S   3 1.00
                         3.42525091           0.15432897
                         0.62391373           0.53532814
                         0.16885540           0.44463454
    ****
    H   3
    S   3 1.00
                         3.42525091           0.15432897
                         0.62391373           0.53532814
                         0.16885540           0.44463454
    ****



        *******************************************************
        *                                                     *
        *                                                     *
        *    Polaritonic UKS                                  *
        *                                                     *
        *                                                     *
        *******************************************************
    Molecular point group: c1
    Full point group: Cs

    Geometry (in Bohr), charge = 0, multiplicity = 1:

       Center              X                  Y                   Z               Mass       
    ------------   -----------------  -----------------  -----------------  -----------------
         O            0.000000000000    -0.000337857954    -0.129476889667    15.994914619570
         H            0.000000000000    -1.491505719181     1.025370227174     1.007825032230
         H            0.000000000000     1.496867770081     1.029521970571     1.007825032230

  -AO BASIS SET INFORMATION:
    Name                   = STO-3G
    Blend                  = STO-3G
    Total number of shells = 5
    Number of primitives   = 15
    Number of AO           = 7
    Number of SO           = 7
    Maximum AM             = 1
    Spherical Harmonics    = TRUE

  -Contraction Scheme:
    Atom   Type   All Primitives // Shells:
   ------ ------ --------------------------
       1     O     6s 3p // 2s 1p 
       2     H     3s // 1s 
       3     H     3s // 1s 

  ==> AO Basis Functions <==

    [ STO-3G ]
    spherical
    ****
    O   1
    S   3 1.00
                       130.70932000           0.15432897
                        23.80886100           0.53532814
                         6.44360830           0.44463454
    S   3 1.00
                         5.03315130          -0.09996723
                         1.16959610           0.39951283
                         0.38038900           0.70011547
    P   3 1.00
                         5.03315130           0.15591627
                         1.16959610           0.60768372
                         0.38038900           0.39195739
    ****
    H   2
    S   3 1.00
                         3.42525091           0.15432897
                         0.62391373           0.53532814
                         0.16885540           0.44463454
    ****
    H   3
    S   3 1.00
                         3.42525091           0.15432897
                         0.62391373           0.53532814
                         0.16885540           0.44463454
    ****

  ==> DFT Potential <==

   => LibXC <=

    Version 7.0.0
    S. Lehtola, C. Steigemann, M. J.T. Oliveira, and M. A.L. Marques.,  SoftwareX 7, 1–5 (2018) (10.1016/j.softx.2017.11.002)

   => Composite Functional: PBE <= 

    PBE GGA Exchange-Correlation Functional

    J.P. Perdew et. al., Phys. Rev. Lett., 77(18), 3865-3868, 1996


    Deriv               =              1
    GGA                 =           TRUE
    Meta                =          FALSE

    Exchange Hybrid     =          FALSE
    MP2 Hybrid          =          FALSE

   => Exchange Functionals <=

    1.0000     XC_GGA_X_PBE

   => Correlation Functionals <=

    1.0000     XC_GGA_C_PBE

   => LibXC Density Thresholds  <==

    XC_GGA_C_PBE:  1.00E-12 
    XC_GGA_X_PBE:  1.00E-15 

   => Molecular Quadrature <=

    Radial Scheme          =       TREUTLER
    Pruning Scheme         =           NONE
    Nuclear Scheme         =       TREUTLER

    Blocking Scheme        =         OCTREE
    BS radius alpha        =              1
    Pruning alpha          =              1
    Radial Points          =             75
    Spherical Points       =            590
    Total Points           =         128481
    Total Blocks           =           1014
    Max Points             =            256
    Max Functions          =              7
    Weights Tolerance      =       1.00E-15


    No. basis functions:                7
    No. auxiliary basis functions:    113
    No. alpha electrons:                5
    No. beta electrons:                 5
    e_convergence:              1.000e-10
    d_convergence:              1.000e-10
    maxiter:                          500



    Guess energy:      -71.905344275359

    ==>  Begin SCF Iterations <==

     Iter               energy                   dE          RMS |[F,P]| 
        0     -75.229816552551      -3.324472277192       0.000159277211
        1     -75.229817565846      -0.000001013295       0.000145766301
        2     -75.229817347977       0.000000217869       0.000170581962
        3     -75.229817045612       0.000000302365       0.000196069074
        4     -75.229818310282      -0.000001264670       0.000000293171
        5     -75.229818310286      -0.000000000004       0.000000004688
        6     -75.229818310286      -0.000000000000       0.000000001081
        7     -75.229818310286       0.000000000000       0.000000000020

    SCF iterations converged!


    ==> dipole self-energy: 1/2 lambda^2 ( <mu_e^2> - <mu_e>^2 ) <==

    one-electron part;        0.007660109218
    two-electron part:       -0.003028415237
    total:                    0.004631693982


    ==> dipole integrals <== 

    <mu_x> =       0.000000000000
    <mu_y> =      -0.003659087549
    <mu_z> =      -0.393887338165


    ==> dipole variance: ( <mu_e^2> - <mu_e>^2 ) <== 

    one electron (xx):       4.562896968728
    one electron (xy):      -0.000000000000
    one electron (xz):      -0.000000000000
    one electron (yy):       7.716858014259
    one electron (yz):       0.020837379880
    one electron (zz):       6.128087374732

    two electron (xx):      -1.672234278879
    two electron (xy):       0.000000000000
    two electron (xz):       0.000000000000
    two electron (yy):      -3.328199544479
    two electron (yz):      -0.004472276020
    two electron (zz):      -2.422732189415

    total (xx):              2.890662689849
    total (xy):             -0.000000000000
    total (xz):             -0.000000000000
    total (yy):              4.388658469779
    total (yz):              0.016365103860
    total (zz):              3.705355185317

    * Polaritonic UKS total energy:     -75.229818310286

    * Polaritonic Dipole Moment:       0.000000000000      -0.003659087549      -0.393887338165
    *     Nuclear Dipole Moment:       0.000000000000       0.002659187271       1.019077080412
    *       Total Dipole Moment:       0.000000000000      -0.000999900278       0.625189742247
    *                 Magnitude:       0.625190541844


 #  #
 Irrep: 1
      1:  -18.448921289123284
      2:   -0.824206003412045
      3:   -0.372580805310079
      4:   -0.165714039309036
      5:   -0.062973683296320
      6:    0.274771801600929
      7:    0.377947732867887


 #  #
 Irrep: 1
      1:  -18.448921289123284
      2:   -0.824206003412045
      3:   -0.372580805310079
      4:   -0.165714039309036
      5:   -0.062973683296320
      6:    0.274771801600929
      7:    0.377947732867887


    Psi4 stopped on: Thursday, 18 June 2026 05:06PM
    Psi4 wall time for execution: 0:00:01.41


    -----------------------------------------------------------------------
          Psi4: An Open-Source Ab Initio Electronic Structure Package
                               Psi4 1.10 

                         Git: Rev {HEAD} f2492db dirty


    D. G. A. Smith, L. A. Burns, A. C. Simmonett, R. M. Parrish,
    M. C. Schieber, R. Galvelis, P. Kraus, H. Kruse, R. Di Remigio,
    A. Alenaizan, A. M. James, S. Lehtola, J. P. Misiewicz, M. Scheurer,
    R. A. Shaw, J. B. Schriber, Y. Xie, Z. L. Glick, D. A. Sirianni,
    J. S. O'Brien, J. M. Waldrop, A. Kumar, E. G. Hohenstein,
    B. P. Pritchard, B. R. Brooks, H. F. Schaefer III, A. Yu. Sokolov,
    K. Patkowski, A. E. DePrince III, U. Bozkaya, R. A. King,
    F. A. Evangelista, J. M. Turney, T. D. Crawford, C. D. Sherrill,
    J. Chem. Phys. 152(18) 184108 (2020). https://doi.org/10.1063/5.0006002

                            Additional Code Authors
    E. T. Seidl, C. L. Janssen, E. F. Valeev, M. L. Leininger,
    J. F. Gonthier, R. M. Richard, H. R. McAlexander, M. Saitow, X. Wang,
    P. Verma, M. H. Lechner, A. Jiang, S. Behnle, A. G. Heide,
    M. F. Herbst, D. L. Poole, T. Győri, E. C. Mitchell, J. P. Pederson,
    and A. M. Wallace

             Previous Authors, Complete List of Code Contributors,
                       and Citations for Specific Modules
    https://github.com/psi4/psi4/blob/master/codemeta.json
    https://github.com/psi4/psi4/graphs/contributors
    https://psicode.org/psi4manual/master/introduction.html#citing-psifour

    -----------------------------------------------------------------------


    Psi4 started on: Thursday, 18 June 2026 05:06PM

    Process ID: 91803
    Host:       wc-dhcp22d225.employee-secure.wireless.fsu.edu
    PSIDATADIR: /Users/deprince/software/psi4/v1.10/psi4/install/share/psi4
    Memory:     500.0 MiB
    Threads:    1
    Addons:     a̶d̶c̶c̶, a̶m̶b̶i̶t̶, b̶s̶e̶, c̶c̶t̶3̶, c̶f̶o̶u̶r̶, c̶h̶e̶m̶p̶s̶2̶, c̶p̶p̶e̶, d̶d̶x̶,
                d̶f̶t̶d̶3̶, d̶f̶t̶d̶4̶, d̶k̶h̶, e̶c̶p̶i̶n̶t̶, e̶i̶n̶s̶u̶m̶s̶, f̶o̶r̶t̶e̶,
                g̶a̶u̶x̶c̶, g̶c̶p̶, g̶d̶m̶a̶, g̶e̶o̶m̶e̶t̶r̶i̶c̶, g̶p̶u̶_̶d̶f̶c̶c̶,
                i̶n̶t̶e̶g̶r̶a̶t̶o̶r̶x̶x̶, i̶p̶i̶, l̶i̶b̶e̶f̶p̶, m̶d̶i̶, m̶p̶2̶d̶, m̶r̶c̶c̶,
                o̶o̶o̶, o̶p̶e̶n̶f̶e̶r̶m̶i̶o̶n̶p̶s̶i̶4̶, p̶c̶m̶s̶o̶l̶v̶e̶r̶,
                p̶s̶i̶4̶f̶o̶c̶k̶c̶i̶, p̶s̶i̶x̶a̶s̶, r̶e̶s̶p̶, s̶i̶m̶i̶n̶t̶, s̶n̶s̶m̶p̶2̶,
                v̶2̶r̶d̶m̶_̶c̶a̶s̶s̶c̶f̶

  ==> Input QCSchema <==

--------------------------------------------------------------------------
{'driver': 'energy',
 'extras': {'psiapi': True, 'wfn_qcvars_only': True},
 'id': None,
 'keywords': {'CAVITY_COUPLING_STRENGTH': [0.0, 0.0, 0.13041133482178593],
              'CAVITY_FREQUENCY': 0.07349864501573,
              'DFT_SPHERICAL_POINTS': 590,
              'D_CONVERGENCE': 1e-10,
              'E_CONVERGENCE': 1e-10,
              'MAXITER': 500,
              'PARENT_SYMMETRY': 'C1',
              'POINTS': 3,
              'QED_DFT_FUNCTIONAL': 'PBE',
              'REFERENCE': 'UKS',
              'SCF_TYPE': 'DF',
              'function_kwargs': {'write_orbitals': False}},
 'model': {'basis': 'sto-3g', 'method': 'qed-dft'},
 'molecule': {'atom_labels': ['', '', ''],
              'atomic_numbers': [8, 1, 1],
              'extras': {},
              'fix_com': True,
              'fix_orientation': True,
              'fix_symmetry': 'c1',
              'fragment_charges': [0.0],
              'fragment_multiplicities': [1],
              'fragments': [[0, 1, 2]],
              'geometry': [0.0, 0.00033785795355509947, -0.1294768896666024, 0.0, -1.496867770080925,
                           1.0295219705709344, 0.0, 1.4915057191813765, 1.0253702271736025],
              'mass_numbers': [16, 1, 1],
              'masses': [15.99491461957, 1.00782503223, 1.00782503223],
              'molecular_charge': 0.0,
              'molecular_multiplicity': 1,
              'name': 'mol1',
              'provenance': {'creator': 'QCElemental',
                             'routine': 'qcelemental.molparse.from_string',
                             'version': '0.29.0'},
              'real': [True, True, True],
              'schema_name': 'qcschema_molecule',
              'schema_version': 2,
              'symbols': ['O', 'H', 'H'],
              'validated': True},
 'protocols': {'stdout': True},
 'provenance': {'creator': 'QCElemental', 'routine': 'qcelemental.models.results', 'version': '0.29.0'},
 'schema_name': 'qcschema_input',
 'schema_version': 1}
--------------------------------------------------------------------------

Scratch directory: /Users/deprince/psi4_scratch/

Scratch directory: /Users/deprince/psi4_scratch/
   => Libint2 <=

    Primary   basis highest AM E, G, H:  5, 4, 3
    Auxiliary basis highest AM E, G, H:  6, 5, 4
    Onebody   basis highest AM E, G, H:  6, 5, 4
    Solid Harmonics ordering:            Gaussian

*** tstart() called on wc-dhcp22d225.employee-secure.wireless.fsu.edu
*** at Thu Jun 18 17:06:06 2026

   => Loading Basis Set <=

    Name: STO-3G
    Role: ORBITAL
    Keyword: BASIS
    atoms 1   entry O          line    81 file /Users/deprince/software/psi4/v1.10/psi4/install/share/psi4/basis/sto-3g.gbs 
    atoms 2-3 entry H          line    19 file /Users/deprince/software/psi4/v1.10/psi4/install/share/psi4/basis/sto-3g.gbs 


         ---------------------------------------------------------
                                   SCF
               by Justin Turney, Rob Parrish, Andy Simmonett
                          and Daniel G. A. Smith
                              UKS Reference
                        1 Threads,    500 MiB Core
         ---------------------------------------------------------

  ==> Geometry <==

    Molecular point group: c1
    Full point group: Cs

    Geometry (in Bohr), charge = 0, multiplicity = 1:

       Center              X                  Y                   Z               Mass       
    ------------   -----------------  -----------------  -----------------  -----------------
         O            0.000000000000     0.000337857954    -0.129476889667    15.994914619570
         H            0.000000000000    -1.496867770081     1.029521970571     1.007825032230
         H            0.000000000000     1.491505719181     1.025370227174     1.007825032230

  Running in c1 symmetry.

  Rotational constants: A =     25.12624  B =     13.37706  C =      8.72952 [cm^-1]
  Rotational constants: A = 753265.70068  B = 401034.09167  C = 261704.30599 [MHz]
  Nuclear repulsion =    8.801496914678173

  Charge       = 0
  Multiplicity = 1
  Electrons    = 10
  Nalpha       = 5
  Nbeta        = 5

  ==> Algorithm <==

  SCF Algorithm Type is DF.
  DIIS enabled.
  MOM disabled.
  Fractional occupation disabled.
  Guess Type is SAD.
  Energy threshold   = 1.00e-10
  Density threshold  = 1.00e-10
  Integral threshold = 1.00e-12

  ==> Primary Basis <==

  Basis Set: STO-3G
    Blend: STO-3G
    Number of shells: 5
    Number of basis functions: 7
    Number of Cartesian functions: 7
    Spherical Harmonics?: true
    Max angular momentum: 1

  ==> DFT Potential <==

   => LibXC <=

    Version 7.0.0
    S. Lehtola, C. Steigemann, M. J.T. Oliveira, and M. A.L. Marques.,  SoftwareX 7, 1–5 (2018) (10.1016/j.softx.2017.11.002)

   => Composite Functional: PBE <= 

    PBE GGA Exchange-Correlation Functional

    J.P. Perdew et. al., Phys. Rev. Lett., 77(18), 3865-3868, 1996


    Deriv               =              1
    GGA                 =           TRUE
    Meta                =          FALSE

    Exchange Hybrid     =          FALSE
    MP2 Hybrid          =          FALSE

   => Exchange Functionals <=

    1.0000     XC_GGA_X_PBE

   => Correlation Functionals <=

    1.0000     XC_GGA_C_PBE

   => LibXC Density Thresholds  <==

    XC_GGA_C_PBE:  1.00E-12 
    XC_GGA_X_PBE:  1.00E-15 

   => Molecular Quadrature <=

    Radial Scheme          =       TREUTLER
    Pruning Scheme         =           NONE
    Nuclear Scheme         =       TREUTLER

    Blocking Scheme        =         OCTREE
    BS radius alpha        =              1
    Pruning alpha          =              1
    Radial Points          =             75
    Spherical Points       =            590
    Total Points           =         128481
    Total Blocks           =           1014
    Max Points             =            256
    Max Functions          =              7
    Weights Tolerance      =       1.00E-15

   => Loading Basis Set <=

    Name: (STO-3G AUX)
    Role: JKFIT
    Keyword: DF_BASIS_SCF
    atoms 1   entry O          line   318 file /Users/deprince/software/psi4/v1.10/psi4/install/share/psi4/basis/def2-universal-jkfit.gbs 
    atoms 2-3 entry H          line    18 file /Users/deprince/software/psi4/v1.10/psi4/install/share/psi4/basis/def2-universal-jkfit.gbs 

  ==> Integral Setup <==

  DFHelper Memory: AOs need 0.000 GiB; user supplied 0.341 GiB. 
  SCF_SUBTYPE=INCORE selected. In-core MEM_DF algorithm will be used.
  Using in-core AOs.

  ==> MemDFJK: Density-Fitted J/K Matrices <==

    J tasked:                   Yes
    K tasked:                    No
    wK tasked:                   No
    OpenMP threads:               1
    Memory [MiB]:               348
    Algorithm:                 Core
    Schwarz Cutoff:           1E-12
    Mask sparsity (%):       0.0000
    Fitting Condition:        1E-10

   => Auxiliary Basis Set <=

  Basis Set: (STO-3G AUX)
    Blend: DEF2-UNIVERSAL-JKFIT
    Number of shells: 37
    Number of basis functions: 113
    Number of Cartesian functions: 133
    Spherical Harmonics?: true
    Max angular momentum: 4

  Cached 100.0% of DFT collocation blocks in 0.026 [GiB].

  Minimum eigenvalue in the overlap matrix is 3.7025904010E-01.
  Reciprocal condition number of the overlap matrix is 1.9725612383E-01.
    Using symmetric orthogonalization.

  ==> Pre-Iterations <==

  SCF Guess: Superposition of Atomic Densities via on-the-fly atomic UHF (no occupation information).

   -------------------------
    Irrep   Nso     Nmo    
   -------------------------
     A          7       7 
   -------------------------
    Total       7       7
   -------------------------

  ==> Iterations <==

                           Total Energy        Delta E     RMS |[F,P]|

   @DF-UKS iter SAD:   -74.56150951309819   -7.45615e+01   0.00000e+00 
   @DF-UKS iter   1:   -75.01272574150785   -4.51216e-01   8.35827e-02 DIIS/ADIIS
   @DF-UKS iter   2:   -75.02742365277557   -1.46979e-02   7.57609e-02 DIIS/ADIIS
   @DF-UKS iter   3:   -75.23420144650201   -2.06778e-01   2.57163e-03 DIIS/ADIIS
   @DF-UKS iter   4:   -75.23445058374138   -2.49137e-04   1.73850e-04 DIIS/ADIIS
   @DF-UKS iter   5:   -75.23445175829671   -1.17456e-06   2.85140e-06 DIIS
   @DF-UKS iter   6:   -75.23445175862989   -3.33173e-10   6.61588e-07 DIIS
   @DF-UKS iter   7:   -75.23445175865342   -2.35332e-11   2.86847e-08 DIIS
   @DF-UKS iter   8:   -75.23445175865341    1.42109e-14   9.64332e-10 DIIS
   @DF-UKS iter   9:   -75.23445175865348   -7.10543e-14   8.11604e-11 DIIS
  Energy and wave function converged.


  ==> Post-Iterations <==

   Electrons on quadrature grid:
      Nalpha   =    4.9999999892 ; deviation = -1.077e-08
      Nbeta    =    4.9999999892 ; deviation = -1.077e-08
      Ntotal   =    9.9999999785 ; deviation = -2.154e-08 

   @Spin Contamination Metric:   1.776356839E-15
   @S^2 Expected:                0.000000000E+00
   @S^2 Observed:                1.776356839E-15
   @S   Expected:                0.000000000E+00
   @S   Observed:                0.000000000E+00

    Orbital Energies [Eh]
    ---------------------

    Alpha Occupied:                                                       

       1A    -18.449578     2A     -0.823949     3A     -0.373372  
       4A     -0.166443     5A     -0.063691  

    Alpha Virtual:                                                        

       6A      0.273422     7A      0.377253  

    Beta Occupied:                                                        

       1A    -18.449578     2A     -0.823949     3A     -0.373372  
       4A     -0.166443     5A     -0.063691  

    Beta Virtual:                                                         

       6A      0.273422     7A      0.377253  

    Final Occupation by Irrep:
              A 
    DOCC [     5 ]
    SOCC [     0 ]
    NA   [     5 ]
    NB   [     5 ]

  @DF-UKS Final Energy:   -75.23445175865348

   => Energetics <=

    Nuclear Repulsion Energy =              8.8014969146781734
    One-Electron Energy =                -121.6600098604413915
    Two-Electron Energy =                  46.9576547374609561
    DFT Exchange-Correlation Energy =      -9.3335935503512086
    Empirical Dispersion Energy =           0.0000000000000000
    VV10 Nonlocal Energy =                  0.0000000000000000
    Total Energy =                        -75.2344517586534778

  UHF NO Occupations:
  HONO-2 :    3  A 2.0000000
  HONO-1 :    4  A 2.0000000
  HONO-0 :    5  A 2.0000000
  LUNO+0 :    6  A 0.0000000
  LUNO+1 :    7  A -0.0000000


Computation Completed


Properties will be evaluated at   0.000000,   0.000000,   0.000000 [a0]

Properties computed using the SCF density matrix


 Multipole Moments:

 ------------------------------------------------------------------------------------
     Multipole            Electronic (a.u.)      Nuclear  (a.u.)        Total (a.u.)
 ------------------------------------------------------------------------------------

 L = 1.  Multiply by 2.5417464519 to convert [e a0] to [Debye]
 Dipole X            :         -0.0000000            0.0000000           -0.0000000
 Dipole Y            :          0.0036704           -0.0026592            0.0010112
 Dipole Z            :         -0.3962919            1.0190771            0.6227852
 Magnitude           :                                                    0.6227860

 ------------------------------------------------------------------------------------

*** tstop() called on wc-dhcp22d225.employee-secure.wireless.fsu.edu at Thu Jun 18 17:06:07 2026
Module time:
	user time   =       0.74 seconds =       0.01 minutes
	system time =       0.03 seconds =       0.00 minutes
	total time  =          1 seconds =       0.02 minutes
Total time:
	user time   =       3.59 seconds =       0.06 minutes
	system time =       0.15 seconds =       0.00 minutes
	total time  =          4 seconds =       0.07 minutes
   => Loading Basis Set <=

    Name: (STO-3G AUX)
    Role: JKFIT
    Keyword: DF_BASIS_SCF
    atoms 1   entry O          line   318 file /Users/deprince/software/psi4/v1.10/psi4/install/share/psi4/basis/def2-universal-jkfit.gbs 
    atoms 2-3 entry H          line    18 file /Users/deprince/software/psi4/v1.10/psi4/install/share/psi4/basis/def2-universal-jkfit.gbs 

   => Loading Basis Set <=

    Name: (STO-3G AUX)
    Role: RIFIT
    Keyword: DF_BASIS_CC
    atoms 1   entry O          line   233 file /Users/deprince/software/psi4/v1.10/psi4/install/share/psi4/basis/def2-svp-ri.gbs 
    atoms 2-3 entry H          line    22 file /Users/deprince/software/psi4/v1.10/psi4/install/share/psi4/basis/def2-svp-ri.gbs 


Reading options from the HILBERT block
Calling plugin hilbert.so.


Plugins that use gradients: set Da, Db, and Lagrangian for gradient theory on the wavefunction. The old way of passing these will stop working as soon as 1.8.    Molecular point group: c1
    Full point group: Cs

    Geometry (in Bohr), charge = 0, multiplicity = 1:

       Center              X                  Y                   Z               Mass       
    ------------   -----------------  -----------------  -----------------  -----------------
         O            0.000000000000     0.000337857954    -0.129476889667    15.994914619570
         H            0.000000000000    -1.496867770081     1.029521970571     1.007825032230
         H            0.000000000000     1.491505719181     1.025370227174     1.007825032230

  -AO BASIS SET INFORMATION:
    Name                   = STO-3G
    Blend                  = STO-3G
    Total number of shells = 5
    Number of primitives   = 15
    Number of AO           = 7
    Number of SO           = 7
    Maximum AM             = 1
    Spherical Harmonics    = TRUE

  -Contraction Scheme:
    Atom   Type   All Primitives // Shells:
   ------ ------ --------------------------
       1     O     6s 3p // 2s 1p 
       2     H     3s // 1s 
       3     H     3s // 1s 

  ==> AO Basis Functions <==

    [ STO-3G ]
    spherical
    ****
    O   1
    S   3 1.00
                       130.70932000           0.15432897
                        23.80886100           0.53532814
                         6.44360830           0.44463454
    S   3 1.00
                         5.03315130          -0.09996723
                         1.16959610           0.39951283
                         0.38038900           0.70011547
    P   3 1.00
                         5.03315130           0.15591627
                         1.16959610           0.60768372
                         0.38038900           0.39195739
    ****
    H   2
    S   3 1.00
                         3.42525091           0.15432897
                         0.62391373           0.53532814
                         0.16885540           0.44463454
    ****
    H   3
    S   3 1.00
                         3.42525091           0.15432897
                         0.62391373           0.53532814
                         0.16885540           0.44463454
    ****



        *******************************************************
        *                                                     *
        *                                                     *
        *    Polaritonic UKS                                  *
        *                                                     *
        *                                                     *
        *******************************************************
    Molecular point group: c1
    Full point group: Cs

    Geometry (in Bohr), charge = 0, multiplicity = 1:

       Center              X                  Y                   Z               Mass       
    ------------   -----------------  -----------------  -----------------  -----------------
         O            0.000000000000     0.000337857954    -0.129476889667    15.994914619570
         H            0.000000000000    -1.496867770081     1.029521970571     1.007825032230
         H            0.000000000000     1.491505719181     1.025370227174     1.007825032230

  -AO BASIS SET INFORMATION:
    Name                   = STO-3G
    Blend                  = STO-3G
    Total number of shells = 5
    Number of primitives   = 15
    Number of AO           = 7
    Number of SO           = 7
    Maximum AM             = 1
    Spherical Harmonics    = TRUE

  -Contraction Scheme:
    Atom   Type   All Primitives // Shells:
   ------ ------ --------------------------
       1     O     6s 3p // 2s 1p 
       2     H     3s // 1s 
       3     H     3s // 1s 

  ==> AO Basis Functions <==

    [ STO-3G ]
    spherical
    ****
    O   1
    S   3 1.00
                       130.70932000           0.15432897
                        23.80886100           0.53532814
                         6.44360830           0.44463454
    S   3 1.00
                         5.03315130          -0.09996723
                         1.16959610           0.39951283
                         0.38038900           0.70011547
    P   3 1.00
                         5.03315130           0.15591627
                         1.16959610           0.60768372
                         0.38038900           0.39195739
    ****
    H   2
    S   3 1.00
                         3.42525091           0.15432897
                         0.62391373           0.53532814
                         0.16885540           0.44463454
    ****
    H   3
    S   3 1.00
                         3.42525091           0.15432897
                         0.62391373           0.53532814
                         0.16885540           0.44463454
    ****

  ==> DFT Potential <==

   => LibXC <=

    Version 7.0.0
    S. Lehtola, C. Steigemann, M. J.T. Oliveira, and M. A.L. Marques.,  SoftwareX 7, 1–5 (2018) (10.1016/j.softx.2017.11.002)

   => Composite Functional: PBE <= 

    PBE GGA Exchange-Correlation Functional

    J.P. Perdew et. al., Phys. Rev. Lett., 77(18), 3865-3868, 1996


    Deriv               =              1
    GGA                 =           TRUE
    Meta                =          FALSE

    Exchange Hybrid     =          FALSE
    MP2 Hybrid          =          FALSE

   => Exchange Functionals <=

    1.0000     XC_GGA_X_PBE

   => Correlation Functionals <=

    1.0000     XC_GGA_C_PBE

   => LibXC Density Thresholds  <==

    XC_GGA_C_PBE:  1.00E-12 
    XC_GGA_X_PBE:  1.00E-15 

   => Molecular Quadrature <=

    Radial Scheme          =       TREUTLER
    Pruning Scheme         =           NONE
    Nuclear Scheme         =       TREUTLER

    Blocking Scheme        =         OCTREE
    BS radius alpha        =              1
    Pruning alpha          =              1
    Radial Points          =             75
    Spherical Points       =            590
    Total Points           =         128481
    Total Blocks           =           1014
    Max Points             =            256
    Max Functions          =              7
    Weights Tolerance      =       1.00E-15


    No. basis functions:                7
    No. auxiliary basis functions:    113
    No. alpha electrons:                5
    No. beta electrons:                 5
    e_convergence:              1.000e-10
    d_convergence:              1.000e-10
    maxiter:                          500



    Guess energy:      -71.905344275363

    ==>  Begin SCF Iterations <==

     Iter               energy                   dE          RMS |[F,P]| 
        0     -75.229816552556      -3.324472277193       0.000159277211
        1     -75.229817565851      -0.000001013295       0.000145766300
        2     -75.229817347982       0.000000217869       0.000170581962
        3     -75.229817045617       0.000000302365       0.000196069074
        4     -75.229818310287      -0.000001264670       0.000000293171
        5     -75.229818310290      -0.000000000004       0.000000004688
        6     -75.229818310290      -0.000000000000       0.000000001081
        7     -75.229818310290      -0.000000000000       0.000000000020

    SCF iterations converged!


    ==> dipole self-energy: 1/2 lambda^2 ( <mu_e^2> - <mu_e>^2 ) <==

    one-electron part;        0.007660109218
    two-electron part:       -0.003028415237
    total:                    0.004631693982


    ==> dipole integrals <== 

    <mu_x> =       0.000000000000
    <mu_y> =       0.003659087549
    <mu_z> =      -0.393887338164


    ==> dipole variance: ( <mu_e^2> - <mu_e>^2 ) <== 

    one electron (xx):       4.562896968728
    one electron (xy):      -0.000000000000
    one electron (xz):      -0.000000000000
    one electron (yy):       7.716858014256
    one electron (yz):      -0.020837379881
    one electron (zz):       6.128087374731

    two electron (xx):      -1.672234278879
    two electron (xy):       0.000000000000
    two electron (xz):       0.000000000000
    two electron (yy):      -3.328199544478
    two electron (yz):       0.004472276020
    two electron (zz):      -2.422732189415

    total (xx):              2.890662689849
    total (xy):             -0.000000000000
    total (xz):             -0.000000000000
    total (yy):              4.388658469778
    total (yz):             -0.016365103861
    total (zz):              3.705355185316

    * Polaritonic UKS total energy:     -75.229818310290

    * Polaritonic Dipole Moment:       0.000000000000       0.003659087549      -0.393887338164
    *     Nuclear Dipole Moment:       0.000000000000      -0.002659187271       1.019077080412
    *       Total Dipole Moment:       0.000000000000       0.000999900278       0.625189742248
    *                 Magnitude:       0.625190541845


 #  #
 Irrep: 1
      1:  -18.448921289123433
      2:   -0.824206003412848
      3:   -0.372580805310786
      4:   -0.165714039309756
      5:   -0.062973683297111
      6:    0.274771801600350
      7:    0.377947732867234


 #  #
 Irrep: 1
      1:  -18.448921289123433
      2:   -0.824206003412848
      3:   -0.372580805310786
      4:   -0.165714039309756
      5:   -0.062973683297111
      6:    0.274771801600350
      7:    0.377947732867234


    Psi4 stopped on: Thursday, 18 June 2026 05:06PM
    Psi4 wall time for execution: 0:00:01.58


    -----------------------------------------------------------------------
          Psi4: An Open-Source Ab Initio Electronic Structure Package
                               Psi4 1.10 

                         Git: Rev {HEAD} f2492db dirty


    D. G. A. Smith, L. A. Burns, A. C. Simmonett, R. M. Parrish,
[...]
   -------------------------
     A          7       7 
   -------------------------
    Total       7       7
   -------------------------

  ==> Iterations <==

                           Total Energy        Delta E     RMS |[F,P]|

   @DF-UKS iter SAD:   -74.56149902686793   -7.45615e+01   0.00000e+00 
   @DF-UKS iter   1:   -75.01273737053097   -4.51238e-01   8.35825e-02 DIIS/ADIIS
   @DF-UKS iter   2:   -75.02743968713173   -1.47023e-02   7.57604e-02 DIIS/ADIIS
   @DF-UKS iter   3:   -75.23420950197914   -2.06770e-01   2.57199e-03 DIIS/ADIIS
   @DF-UKS iter   4:   -75.23445870297938   -2.49201e-04   1.73841e-04 DIIS/ADIIS
   @DF-UKS iter   5:   -75.23445987726167   -1.17428e-06   2.49319e-06 DIIS
   @DF-UKS iter   6:   -75.23445987751535   -2.53678e-10   7.97584e-08 DIIS
   @DF-UKS iter   7:   -75.23445987751559   -2.41585e-13   1.11720e-09 DIIS
   @DF-UKS iter   8:   -75.23445987751560   -1.42109e-14   1.22268e-12 DIIS
  Energy and wave function converged.


  ==> Post-Iterations <==

   Electrons on quadrature grid:
      Nalpha   =    4.9999999892 ; deviation = -1.082e-08
      Nbeta    =    4.9999999892 ; deviation = -1.082e-08
      Ntotal   =    9.9999999784 ; deviation = -2.163e-08 

   @Spin Contamination Metric:   0.000000000E+00
   @S^2 Expected:                0.000000000E+00
   @S^2 Observed:                0.000000000E+00
   @S   Expected:                0.000000000E+00
   @S   Observed:                0.000000000E+00

    Orbital Energies [Eh]
    ---------------------

    Alpha Occupied:                                                       

       1A    -18.449577     2A     -0.823944     3A     -0.373373  
       4A     -0.166443     5A     -0.063691  

    Alpha Virtual:                                                        

       6A      0.273448     7A      0.377222  

    Beta Occupied:                                                        

       1A    -18.449577     2A     -0.823944     3A     -0.373373  
       4A     -0.166443     5A     -0.063691  

    Beta Virtual:                                                         

       6A      0.273448     7A      0.377222  

    Final Occupation by Irrep:
              A 
    DOCC [     5 ]
    SOCC [     0 ]
    NA   [     5 ]
    NB   [     5 ]

  @DF-UKS Final Energy:   -75.23445987751560

   => Energetics <=

    Nuclear Repulsion Energy =              8.8014655645634043
    One-Electron Energy =                -121.6599724528023074
    Two-Electron Energy =                  46.9576381732489097
    DFT Exchange-Correlation Energy =      -9.3335911625256038
    Empirical Dispersion Energy =           0.0000000000000000
    VV10 Nonlocal Energy =                  0.0000000000000000
    Total Energy =                        -75.2344598775156044

  UHF NO Occupations:
  HONO-2 :    3  A 2.0000000
  HONO-1 :    4  A 2.0000000
  HONO-0 :    5  A 2.0000000
  LUNO+0 :    6  A 0.0000000
  LUNO+1 :    7  A 0.0000000


Computation Completed


Properties will be evaluated at   0.000000,   0.000000,   0.000000 [a0]

Properties computed using the SCF density matrix


 Multipole Moments:

 ------------------------------------------------------------------------------------
     Multipole            Electronic (a.u.)      Nuclear  (a.u.)        Total (a.u.)
 ------------------------------------------------------------------------------------

 L = 1.  Multiply by 2.5417464519 to convert [e a0] to [Debye]
 Dipole X            :         -0.3962941            1.0190771            0.6227830
 Dipole Y            :          0.0000000            0.0000000            0.0000000
 Dipole Z            :         -0.0000000            0.0000000           -0.0000000
 Magnitude           :                                                    0.6227830

 ------------------------------------------------------------------------------------

*** tstop() called on wc-dhcp22d225.employee-secure.wireless.fsu.edu at Thu Jun 18 17:06:17 2026
Module time:
	user time   =       0.65 seconds =       0.01 minutes
	system time =       0.01 seconds =       0.00 minutes
	total time  =          1 seconds =       0.02 minutes
Total time:
	user time   =      12.84 seconds =       0.21 minutes
	system time =       0.43 seconds =       0.01 minutes
	total time  =         14 seconds =       0.23 minutes
   => Loading Basis Set <=

    Name: (STO-3G AUX)
    Role: JKFIT
    Keyword: DF_BASIS_SCF
    atoms 1   entry O          line   318 file /Users/deprince/software/psi4/v1.10/psi4/install/share/psi4/basis/def2-universal-jkfit.gbs 
    atoms 2-3 entry H          line    18 file /Users/deprince/software/psi4/v1.10/psi4/install/share/psi4/basis/def2-universal-jkfit.gbs 

   => Loading Basis Set <=

    Name: (STO-3G AUX)
    Role: RIFIT
    Keyword: DF_BASIS_CC
    atoms 1   entry O          line   233 file /Users/deprince/software/psi4/v1.10/psi4/install/share/psi4/basis/def2-svp-ri.gbs 
    atoms 2-3 entry H          line    22 file /Users/deprince/software/psi4/v1.10/psi4/install/share/psi4/basis/def2-svp-ri.gbs 


Reading options from the HILBERT block
Calling plugin hilbert.so.


Plugins that use gradients: set Da, Db, and Lagrangian for gradient theory on the wavefunction. The old way of passing these will stop working as soon as 1.8.    Molecular point group: c1
    Full point group: C2v

    Geometry (in Angstrom), charge = 0, multiplicity = 1:

       Center              X                  Y                   Z               Mass       
    ------------   -----------------  -----------------  -----------------  -----------------
         O           -0.068516219320     0.000000000000     0.000000000000    15.994914619570
         H            0.543701060715     0.000000000000    -0.790689573744     1.007825032230
         H            0.543701060715     0.000000000000     0.790689573744     1.007825032230

  -AO BASIS SET INFORMATION:
    Name                   = STO-3G
    Blend                  = STO-3G
    Total number of shells = 5
    Number of primitives   = 15
    Number of AO           = 7
    Number of SO           = 7
    Maximum AM             = 1
    Spherical Harmonics    = TRUE

  -Contraction Scheme:
    Atom   Type   All Primitives // Shells:
   ------ ------ --------------------------
       1     O     6s 3p // 2s 1p 
       2     H     3s // 1s 
       3     H     3s // 1s 

  ==> AO Basis Functions <==

    [ STO-3G ]
    spherical
    ****
    O   1
    S   3 1.00
                       130.70932000           0.15432897
                        23.80886100           0.53532814
                         6.44360830           0.44463454
    S   3 1.00
                         5.03315130          -0.09996723
                         1.16959610           0.39951283
                         0.38038900           0.70011547
    P   3 1.00
                         5.03315130           0.15591627
                         1.16959610           0.60768372
                         0.38038900           0.39195739
    ****
    H   2
    S   3 1.00
                         3.42525091           0.15432897
                         0.62391373           0.53532814
                         0.16885540           0.44463454
    ****
    H   3
    S   3 1.00
                         3.42525091           0.15432897
                         0.62391373           0.53532814
                         0.16885540           0.44463454
    ****



        *******************************************************
        *                                                     *
        *                                                     *
        *    Polaritonic UKS                                  *
        *                                                     *
        *                                                     *
        *******************************************************
    Molecular point group: c1
    Full point group: C2v

    Geometry (in Angstrom), charge = 0, multiplicity = 1:

       Center              X                  Y                   Z               Mass       
    ------------   -----------------  -----------------  -----------------  -----------------
         O           -0.068516219320     0.000000000000     0.000000000000    15.994914619570
         H            0.543701060715     0.000000000000    -0.790689573744     1.007825032230
         H            0.543701060715     0.000000000000     0.790689573744     1.007825032230

  -AO BASIS SET INFORMATION:
    Name                   = STO-3G
    Blend                  = STO-3G
    Total number of shells = 5
    Number of primitives   = 15
    Number of AO           = 7
    Number of SO           = 7
    Maximum AM             = 1
    Spherical Harmonics    = TRUE

  -Contraction Scheme:
    Atom   Type   All Primitives // Shells:
   ------ ------ --------------------------
       1     O     6s 3p // 2s 1p 
       2     H     3s // 1s 
       3     H     3s // 1s 

  ==> AO Basis Functions <==

    [ STO-3G ]
    spherical
    ****
    O   1
    S   3 1.00
                       130.70932000           0.15432897
                        23.80886100           0.53532814
                         6.44360830           0.44463454
    S   3 1.00
                         5.03315130          -0.09996723
                         1.16959610           0.39951283
                         0.38038900           0.70011547
    P   3 1.00
                         5.03315130           0.15591627
                         1.16959610           0.60768372
                         0.38038900           0.39195739
    ****
    H   2
    S   3 1.00
                         3.42525091           0.15432897
                         0.62391373           0.53532814
                         0.16885540           0.44463454
    ****
    H   3
    S   3 1.00
                         3.42525091           0.15432897
                         0.62391373           0.53532814
                         0.16885540           0.44463454
    ****

  ==> DFT Potential <==

   => LibXC <=

    Version 7.0.0
    S. Lehtola, C. Steigemann, M. J.T. Oliveira, and M. A.L. Marques.,  SoftwareX 7, 1–5 (2018) (10.1016/j.softx.2017.11.002)

   => Composite Functional: PBE <= 

    PBE GGA Exchange-Correlation Functional

    J.P. Perdew et. al., Phys. Rev. Lett., 77(18), 3865-3868, 1996


    Deriv               =              1
    GGA                 =           TRUE
    Meta                =          FALSE

    Exchange Hybrid     =          FALSE
    MP2 Hybrid          =          FALSE

   => Exchange Functionals <=

    1.0000     XC_GGA_X_PBE

   => Correlation Functionals <=

    1.0000     XC_GGA_C_PBE

   => LibXC Density Thresholds  <==

    XC_GGA_C_PBE:  1.00E-12 
    XC_GGA_X_PBE:  1.00E-15 

   => Molecular Quadrature <=

    Radial Scheme          =       TREUTLER
    Pruning Scheme         =           NONE
    Nuclear Scheme         =       TREUTLER

    Blocking Scheme        =         OCTREE
    BS radius alpha        =              1
    Pruning alpha          =              1
    Radial Points          =             75
    Spherical Points       =            590
    Total Points           =         128485
    Total Blocks           =           1024
    Max Points             =            256
    Max Functions          =              7
    Weights Tolerance      =       1.00E-15


    No. basis functions:                7
    No. auxiliary basis functions:    113
    No. alpha electrons:                5
    No. beta electrons:                 5
    e_convergence:              1.000e-10
    d_convergence:              1.000e-10
    maxiter:                          500



    Guess energy:      -71.905353227228

    ==>  Begin SCF Iterations <==

     Iter               energy                   dE          RMS |[F,P]| 
        0     -75.229824675103      -3.324471447876       0.000159277368
        1     -75.229825688443      -0.000001013340       0.000145763492
        2     -75.229825470647       0.000000217796       0.000170573899
        3     -75.229825168399       0.000000302248       0.000196053711
        4     -75.229826432838      -0.000001264439       0.000000293054
        5     -75.229826432842      -0.000000000004       0.000000003645
        6     -75.229826432842       0.000000000000       0.000000000032

    SCF iterations converged!


    ==> dipole self-energy: 1/2 lambda^2 ( <mu_e^2> - <mu_e>^2 ) <==

    one-electron part;        0.007660100703
    two-electron part:       -0.003028410415
    total:                    0.004631690288


    ==> dipole integrals <== 

    <mu_x> =      -0.393889524109
    <mu_y> =      -0.000000000000
    <mu_z> =      -0.000000000000


    ==> dipole variance: ( <mu_e^2> - <mu_e>^2 ) <== 

    one electron (xx):       6.128080562261
    one electron (xy):       0.000000000000
    one electron (xz):       0.000000000000
    one electron (yy):       4.562898930325
    one electron (yz):       0.000000000000
    one electron (zz):       7.716846890649

    two electron (xx):      -2.422728331754
    two electron (xy):      -0.000000000000
    two electron (xz):      -0.000000000000
    two electron (yy):      -1.672234233766
    two electron (yz):      -0.000000000000
    two electron (zz):      -3.328195742569

    total (xx):              3.705352230508
    total (xy):              0.000000000000
    total (xz):              0.000000000000
    total (yy):              2.890664696559
    total (yz):              0.000000000000
    total (zz):              4.388651148080

    * Polaritonic UKS total energy:     -75.229826432842

    * Polaritonic Dipole Moment:      -0.393889524109      -0.000000000000      -0.000000000000
    *     Nuclear Dipole Moment:       1.019077080412       0.000000000000       0.000000000000
    *       Total Dipole Moment:       0.625187556303      -0.000000000000      -0.000000000000
    *                 Magnitude:       0.625187556303


 #  #
 Irrep: 1
      1:  -18.448921040821247
      2:   -0.824201709224232
      3:   -0.372582289435273
      4:   -0.165714119940679
      5:   -0.062972969892512
      6:    0.274797602791350
      7:    0.377916341855431


 #  #
 Irrep: 1
      1:  -18.448921040821247
      2:   -0.824201709224232
      3:   -0.372582289435273
      4:   -0.165714119940679
      5:   -0.062972969892512
      6:    0.274797602791350
      7:    0.377916341855431


*** tstart() called on wc-dhcp22d225.employee-secure.wireless.fsu.edu
*** at Thu Jun 18 17:06:17 2026


         ------------------------------------------------------------
                                   SCF GRAD                          
                          Rob Parrish, Justin Turney,                
                       Andy Simmonett, and Alex Sokolov              
         ------------------------------------------------------------

  ==> Geometry <==

    Molecular point group: c1
    Full point group: C2v

    Geometry (in Angstrom), charge = 0, multiplicity = 1:

       Center              X                  Y                   Z               Mass       
    ------------   -----------------  -----------------  -----------------  -----------------
         O           -0.068516219320     0.000000000000     0.000000000000    15.994914619570
         H            0.543701060715     0.000000000000    -0.790689573744     1.007825032230
         H            0.543701060715     0.000000000000     0.790689573744     1.007825032230

  Nuclear repulsion =    8.801465564563404

  ==> Basis Set <==

  Basis Set: STO-3G
    Blend: STO-3G
    Number of shells: 5
    Number of basis functions: 7
    Number of Cartesian functions: 7
    Spherical Harmonics?: true
    Max angular momentum: 1

  ==> DFJKGrad: Density-Fitted SCF Gradients <==

    Gradient:                    1
    J tasked:                  Yes
    K tasked:                   No
    wK tasked:                  No
    OpenMP threads:              1
    Integrals threads:           1
    Memory [MiB]:              375
    Schwarz Cutoff:          1E-12
    Fitting Condition:       1E-10

   => Auxiliary Basis Set <=

  Basis Set: (STO-3G AUX)
    Blend: DEF2-UNIVERSAL-JKFIT
    Number of shells: 37
    Number of basis functions: 113
    Number of Cartesian functions: 133
    Spherical Harmonics?: true
    Max angular momentum: 4

  ==> DFT Potential <==

   => LibXC <=

    Version 7.0.0
    S. Lehtola, C. Steigemann, M. J.T. Oliveira, and M. A.L. Marques.,  SoftwareX 7, 1–5 (2018) (10.1016/j.softx.2017.11.002)

   => Composite Functional: PBE <= 

    PBE GGA Exchange-Correlation Functional

    J.P. Perdew et. al., Phys. Rev. Lett., 77(18), 3865-3868, 1996


    Deriv               =              1
    GGA                 =           TRUE
    Meta                =          FALSE

    Exchange Hybrid     =          FALSE
    MP2 Hybrid          =          FALSE

   => Exchange Functionals <=

    1.0000     XC_GGA_X_PBE

   => Correlation Functionals <=

    1.0000     XC_GGA_C_PBE

   => LibXC Density Thresholds  <==

    XC_GGA_C_PBE:  1.00E-12 
    XC_GGA_X_PBE:  1.00E-15 

   => Molecular Quadrature <=

    Radial Scheme          =       TREUTLER
    Pruning Scheme         =           NONE
    Nuclear Scheme         =       TREUTLER

    Blocking Scheme        =         OCTREE
    BS radius alpha        =              1
    Pruning alpha          =              1
    Radial Points          =             75
    Spherical Points       =            590
    Total Points           =         128485
    Total Blocks           =           1024
    Max Points             =            256
    Max Functions          =              7
    Weights Tolerance      =       1.00E-15


  -Total Gradient:
     Atom            X                  Y                   Z
    ------   -----------------  -----------------  -----------------
       1        0.063845817838    -0.000000000000    -0.000000000002
       2       -0.031922777950    -0.000000000000     0.012701621111
       3       -0.031922777950     0.000000000000    -0.012701621109


*** tstop() called on wc-dhcp22d225.employee-secure.wireless.fsu.edu at Thu Jun 18 17:06:17 2026
Module time:
	user time   =       0.10 seconds =       0.00 minutes
	system time =       0.01 seconds =       0.00 minutes
	total time  =          0 seconds =       0.00 minutes
Total time:
	user time   =      13.50 seconds =       0.23 minutes
	system time =       0.46 seconds =       0.01 minutes
	total time  =         14 seconds =       0.23 minutes

Electronic Gradient: norm =       0.080231404806

  ## Total Gradient (Symmetry 0) ##
  Irrep: 1 Size: 3 x 3

                 1                   2                   3

    1     0.06384581783847    -0.00000000000008    -0.00000000000168
    2    -0.03192277795009    -0.00000000000000     0.01270162111058
    3    -0.03192277794979     0.00000000000000    -0.01270162110892




 # Electronic Gradient |xyz| #
 Irrep: 1
      1:    0.078194731021629
      2:    0.000000000000083
      3:    0.017962804837531


Polaritonic Gradient: norm =       0.077730565221

  ## Total Gradient (Symmetry 0) ##
  Irrep: 1 Size: 3 x 3

                 1                   2                   3

    1     0.06182045935385    -0.00000000000008    -0.00000000000168
    2    -0.03091009870778    -0.00000000000000     0.01243790920410
    3    -0.03091009870748     0.00000000000000    -0.01243790920244




 # Polaritonic Gradient |xyz| #
 Irrep: 1
      1:    0.075714183604873
      2:    0.000000000000083
      3:    0.017589859882828

Gradient Difference: norm =      -0.002500839585

 # Gradient Difference |xyz| #
 Irrep: 1
      1:   -0.002480547416756
      2:    0.000000000000000
      3:   -0.000372944954703

    QED-DFT numerical versus analytic energy gradient (x-pol).............................PASSED

    Psi4 stopped on: Thursday, 18 June 2026 05:06PM
    Psi4 wall time for execution: 0:00:15.00

*** Psi4 exiting successfully. Buy a developer a beer!
