
    -----------------------------------------------------------------------
          Psi4: An Open-Source Ab Initio Electronic Structure Package
                               Psi4 1.9.1 release

                         Git: Rev {} zzzzzzz 


    D. G. A. Smith, L. A. Burns, A. C. Simmonett, R. M. Parrish,
    M. C. Schieber, R. Galvelis, P. Kraus, H. Kruse, R. Di Remigio,
    A. Alenaizan, A. M. James, S. Lehtola, J. P. Misiewicz, M. Scheurer,
    R. A. Shaw, J. B. Schriber, Y. Xie, Z. L. Glick, D. A. Sirianni,
    J. S. O'Brien, J. M. Waldrop, A. Kumar, E. G. Hohenstein,
    B. P. Pritchard, B. R. Brooks, H. F. Schaefer III, A. Yu. Sokolov,
    K. Patkowski, A. E. DePrince III, U. Bozkaya, R. A. King,
    F. A. Evangelista, J. M. Turney, T. D. Crawford, C. D. Sherrill,
    J. Chem. Phys. 152(18) 184108 (2020). https://doi.org/10.1063/5.0006002

                            Additional Code Authors
    E. T. Seidl, C. L. Janssen, E. F. Valeev, M. L. Leininger,
    J. F. Gonthier, R. M. Richard, H. R. McAlexander, M. Saitow, X. Wang,
    P. Verma, M. H. Lechner, A. Jiang, S. Behnle, A. G. Heide,
    M. F. Herbst, and D. L. Poole

             Previous Authors, Complete List of Code Contributors,
                       and Citations for Specific Modules
    https://github.com/psi4/psi4/blob/master/codemeta.json
    https://github.com/psi4/psi4/graphs/contributors
    http://psicode.org/psi4manual/master/introduction.html#citing-psifour

    -----------------------------------------------------------------------


    Psi4 started on: Tuesday, 06 May 2025 03:33PM

    Process ID: 5802
    Host:       WE52847
    PSIDATADIR: /home/marklie/miniconda3/envs/pdev/share/psi4
    Memory:     500.0 MiB
    Threads:    12
    
  ==> Input File <==

--------------------------------------------------------------------------
sys.path.insert(0, '../../../')
import math
import hilbert

molecule {
  0 1

  O            0.000000000000     0.000000000000    -0.065655108083
  H            0.000000000000    -0.757365949175     0.520997104927
  H            0.000000000000     0.757365949175     0.520997104927

  # do not reorient the molecule.
  # The orientation relative to the cavity polarization affects the result
  no_reorient 
  no_com
  
  # symmetry is not supported for QED-CC calculations
  symmetry c1
}

set {
  basis sto-3g # basis set for the molecular orbitals
  reference rhf # all calculations use a spin-orbital basis
  
  # CD algorithm is recommended for QED-CC calculations. DF is also supported, but not PK. 
  scf_type cd 
  cholesky_tolerance 1e-12
  diis_max_vecs 25
  
  # convergence criteria for the SCF and CC iterations
  e_convergence 1e-8
  r_convergence 1e-8
  d_convergence 1e-8
}
 
lam = 0.05 # coupling factor (this value is for a 0.74 nm³ cavity)
frequency = 0.1 # frequency of the cavity mode
coupling_strength = (lam / math.sqrt(2.0 * frequency)) # coupling strength
set hilbert {
  maxiter 10000 # maximum number of iterations for the groundstate CC methods
  
  # set the cavity parameters
  cavity_frequency         [0.0, 0.0, $frequency]
  cavity_coupling_strength [0.0, 0.0, $coupling_strength]
  
  QED_USE_RELAXED_ORBITALS  true # do relax the SCF orbitals within the cavity
  ROTATE_POLARIZATION_AXIS   XYZ # rotate the cavity polarization from the XYZ axis to ZXY, or YZX.
  
  NUMBER_ROOTS                10 # number of excited states to compute
  MAXDIM                       8 # maximum dimension of the EOM-CC subspace (multiplied by NUMBER_ROOTS)
  INDIM                        4 # initial dimension of the EOM-CC subspace (multiplied by NUMBER_ROOTS)
  
  EOM_MAXITER                250 # maximum number of iterations for the EOM-CC iterations
  MAD_NUM_THREADS              1 # the number of MADNESS threads to use with mpirun 
                                 # Note: if not using mpi or using eom, set this to 1 for best performanc
  TILE_SIZE                   -1 # the spacing between tiles in a tiledarray (-1 places all data on a single tile)
                                 # Note: if not using mpi or using eom, set this to -1 for best performance
}

# memory for Psi4 (note: this is for the integrals, not the CC calculation which does not restrict memory usage)
memory 1000 MB

# run the QED-CC calculations

en1, wfn = energy('qed-ccsd', return_wfn=True)        # QED-CCSD-21 w/o TiledArray
en2, wfn = energy('qed-ccsd-21', return_wfn=True)     # QED-CCSD-21 w/ TiledArray
en3, wfn = energy('qed-ccsd-22', return_wfn=True)     # QED-CCSD-22 w/ TiledArray

# print the energies
print('QED-CCSD-21: ', en1)
print('QED-CCSD-21 (TiledArray): ', en2)
print('QED-CCSD-22 (TiledArray): ', en3)

set hilbert EOM_TYPE EE
en4, wfn = energy('eom-qed-ccsd-21', return_wfn=True) # EOM-EE-QED-CCSD-21 w/ TiledArray

set hilbert EOM_TYPE EA
en5, wfn = energy('eom-qed-ccsd-21', return_wfn=True) # EOM-EA-QED-CCSD-21 w/ TiledArray
--------------------------------------------------------------------------

  Memory set to 953.674 MiB by Python driver.

Scratch directory: /tmp/
   => Libint2 <=

    Primary   basis highest AM E, G, H:  6, 6, 3
    Auxiliary basis highest AM E, G, H:  7, 7, 4
    Onebody   basis highest AM E, G, H:  -, -, -
    Solid Harmonics ordering:            Gaussian

*** tstart() called on WE52847
*** at Tue May  6 15:33:02 2025

   => Loading Basis Set <=

    Name: STO-3G
    Role: ORBITAL
    Keyword: BASIS
    atoms 1   entry O          line    81 file /home/marklie/miniconda3/envs/pdev/share/psi4/basis/sto-3g.gbs 
    atoms 2-3 entry H          line    19 file /home/marklie/miniconda3/envs/pdev/share/psi4/basis/sto-3g.gbs 


         ---------------------------------------------------------
                                   SCF
               by Justin Turney, Rob Parrish, Andy Simmonett
                          and Daniel G. A. Smith
                              RHF Reference
                       12 Threads,    953 MiB Core
         ---------------------------------------------------------

  ==> Geometry <==

    Molecular point group: c1
    Full point group: C2v

    Geometry (in Angstrom), charge = 0, multiplicity = 1:

       Center              X                  Y                   Z               Mass       
    ------------   -----------------  -----------------  -----------------  -----------------
         O            0.000000000000     0.000000000000    -0.065655108083    15.994914619570
         H            0.000000000000    -0.757365949175     0.520997104927     1.007825032230
         H            0.000000000000     0.757365949175     0.520997104927     1.007825032230

  Running in c1 symmetry.

  Rotational constants: A =     27.36310  B =     14.58041  C =      9.51197 [cm^-1]
  Rotational constants: A = 820325.17390  B = 437109.76779  C = 285161.58919 [MHz]
  Nuclear repulsion =    9.187386457593393

  Charge       = 0
  Multiplicity = 1
  Electrons    = 10
  Nalpha       = 5
  Nbeta        = 5

  ==> Algorithm <==

  SCF Algorithm Type is CD.
  DIIS enabled.
  MOM disabled.
  Fractional occupation disabled.
  Guess Type is SAD.
  Energy threshold   = 1.00e-08
  Density threshold  = 1.00e-08
  Integral threshold = 1.00e-12

  ==> Primary Basis <==

  Basis Set: STO-3G
    Blend: STO-3G
    Number of shells: 5
    Number of basis functions: 7
    Number of Cartesian functions: 7
    Spherical Harmonics?: true
    Max angular momentum: 1

  ==> Integral Setup <==

  ==> CDJK: Cholesky-decomposed J/K Matrices <==

    J tasked:                     Yes
    K tasked:                     Yes
    wK tasked:                     No
    OpenMP threads:                12
    Integrals threads:             12
    Memory [MiB]:                 715
    Algorithm:                   Core
    Integral Cache:              SAVE
    Schwarz Cutoff:             1E-12
    Cholesky tolerance:      1.00E-12
    No. Cholesky vectors:          28

  Minimum eigenvalue in the overlap matrix is 3.4273419653E-01.
  Reciprocal condition number of the overlap matrix is 1.7758633656E-01.
    Using symmetric orthogonalization.

  ==> Pre-Iterations <==

  SCF Guess: Superposition of Atomic Densities via on-the-fly atomic UHF (no occupation information).

   -------------------------
    Irrep   Nso     Nmo    
   -------------------------
     A          7       7 
   -------------------------
    Total       7       7
   -------------------------

  ==> Iterations <==

                        Total Energy        Delta E     RMS |[F,P]|

   @RHF iter SAD:   -74.22030711444420   -7.42203e+01   0.00000e+00 
   @RHF iter   1:   -74.91363471074011   -6.93328e-01   3.54952e-02 ADIIS/DIIS
   @RHF iter   2:   -74.96213202689611   -4.84973e-02   5.35979e-03 ADIIS/DIIS
   @RHF iter   3:   -74.96298657213606   -8.54545e-04   1.25872e-03 ADIIS/DIIS
   @RHF iter   4:   -74.96305434560490   -6.77735e-05   1.24759e-04 ADIIS/DIIS
   @RHF iter   5:   -74.96305550011681   -1.15451e-06   8.34668e-06 DIIS
   @RHF iter   6:   -74.96305550410993   -3.99312e-09   5.04535e-07 DIIS
   @RHF iter   7:   -74.96305550412437   -1.44382e-11   1.62180e-09 DIIS
  Energy and wave function converged.


  ==> Post-Iterations <==

    Orbital Energies [Eh]
    ---------------------

    Doubly Occupied:                                                      

       1A    -20.241893     2A     -1.268049     3A     -0.617442  
       4A     -0.453000     5A     -0.391223  

    Virtual:                                                              

       6A      0.604952     7A      0.741324  

    Final Occupation by Irrep:
              A 
    DOCC [     5 ]
    NA   [     5 ]
    NB   [     5 ]

  @RHF Final Energy:   -74.96305550412437

   => Energetics <=

    Nuclear Repulsion Energy =              9.1873864575933926
    One-Electron Energy =                -122.3576685812235780
    Two-Electron Energy =                  38.2072266195058177
    Total Energy =                        -74.9630555041243696

Computation Completed


Properties will be evaluated at   0.000000,   0.000000,   0.000000 [a0]

Properties computed using the SCF density matrix


 Multipole Moments:

 ------------------------------------------------------------------------------------
     Multipole            Electronic (a.u.)      Nuclear  (a.u.)        Total (a.u.)
 ------------------------------------------------------------------------------------

 L = 1.  Multiply by 2.5417464519 to convert [e a0] to [Debye]
 Dipole X            :          0.0000000            0.0000000            0.0000000
 Dipole Y            :         -0.0000000            0.0000000           -0.0000000
 Dipole Z            :         -0.2978450            0.9765223            0.6786773
 Magnitude           :                                                    0.6786773

 ------------------------------------------------------------------------------------

*** tstop() called on WE52847 at Tue May  6 15:33:03 2025
Module time:
	user time   =       4.87 seconds =       0.08 minutes
	system time =       0.21 seconds =       0.00 minutes
	total time  =          1 seconds =       0.02 minutes
Total time:
	user time   =       4.87 seconds =       0.08 minutes
	system time =       0.21 seconds =       0.00 minutes
	total time  =          1 seconds =       0.02 minutes
   => Loading Basis Set <=

    Name: (STO-3G AUX)
    Role: JKFIT
    Keyword: DF_BASIS_SCF
    atoms 1   entry O          line   318 file /home/marklie/miniconda3/envs/pdev/share/psi4/basis/def2-universal-jkfit.gbs 
    atoms 2-3 entry H          line    18 file /home/marklie/miniconda3/envs/pdev/share/psi4/basis/def2-universal-jkfit.gbs 

   => Loading Basis Set <=

    Name: (STO-3G AUX)
    Role: RIFIT
    Keyword: DF_BASIS_CC
    atoms 1   entry O          line   233 file /home/marklie/miniconda3/envs/pdev/share/psi4/basis/def2-svp-ri.gbs 
    atoms 2-3 entry H          line    22 file /home/marklie/miniconda3/envs/pdev/share/psi4/basis/def2-svp-ri.gbs 


Reading options from the HILBERT block
Calling plugin hilbert.so.


Plugins that use gradients: set Da, Db, and Lagrangian for gradient theory on the wavefunction. The old way of passing these will stop working as soon as 1.8.    Molecular point group: c1
    Full point group: C2v

    Geometry (in Angstrom), charge = 0, multiplicity = 1:

       Center              X                  Y                   Z               Mass       
    ------------   -----------------  -----------------  -----------------  -----------------
         O            0.000000000000     0.000000000000    -0.065655108083    15.994914619570
         H            0.000000000000    -0.757365949175     0.520997104927     1.007825032230
         H            0.000000000000     0.757365949175     0.520997104927     1.007825032230

  -AO BASIS SET INFORMATION:
    Name                   = STO-3G
    Blend                  = STO-3G
    Total number of shells = 5
    Number of primitives   = 15
    Number of AO           = 7
    Number of SO           = 7
    Maximum AM             = 1
    Spherical Harmonics    = TRUE

  -Contraction Scheme:
    Atom   Type   All Primitives // Shells:
   ------ ------ --------------------------
       1     O     6s 3p // 2s 1p 
       2     H     3s // 1s 
       3     H     3s // 1s 

  ==> AO Basis Functions <==

    [ STO-3G ]
    spherical
    ****
    O   1
    S   3 1.00
                       130.70932000           0.15432897
                        23.80886100           0.53532814
                         6.44360830           0.44463454
    S   3 1.00
                         5.03315130          -0.09996723
                         1.16959610           0.39951283
                         0.38038900           0.70011547
    P   3 1.00
                         5.03315130           0.15591627
                         1.16959610           0.60768372
                         0.38038900           0.39195739
    ****
    H   2
    S   3 1.00
                         3.42525091           0.15432897
                         0.62391373           0.53532814
                         0.16885540           0.44463454
    ****
    H   3
    S   3 1.00
                         3.42525091           0.15432897
                         0.62391373           0.53532814
                         0.16885540           0.44463454
    ****



        *******************************************************
        *                                                     *
        *                                                     *
        *    Polaritonic RHF                                  *
        *                                                     *
        *                                                     *
        *******************************************************
    Molecular point group: c1
    Full point group: C2v

    Geometry (in Angstrom), charge = 0, multiplicity = 1:

       Center              X                  Y                   Z               Mass       
    ------------   -----------------  -----------------  -----------------  -----------------
         O            0.000000000000     0.000000000000    -0.065655108083    15.994914619570
         H            0.000000000000    -0.757365949175     0.520997104927     1.007825032230
         H            0.000000000000     0.757365949175     0.520997104927     1.007825032230

  -AO BASIS SET INFORMATION:
    Name                   = STO-3G
    Blend                  = STO-3G
    Total number of shells = 5
    Number of primitives   = 15
    Number of AO           = 7
    Number of SO           = 7
    Maximum AM             = 1
    Spherical Harmonics    = TRUE

  -Contraction Scheme:
    Atom   Type   All Primitives // Shells:
   ------ ------ --------------------------
       1     O     6s 3p // 2s 1p 
       2     H     3s // 1s 
       3     H     3s // 1s 

  ==> AO Basis Functions <==

    [ STO-3G ]
    spherical
    ****
    O   1
    S   3 1.00
                       130.70932000           0.15432897
                        23.80886100           0.53532814
                         6.44360830           0.44463454
    S   3 1.00
                         5.03315130          -0.09996723
                         1.16959610           0.39951283
                         0.38038900           0.70011547
    P   3 1.00
                         5.03315130           0.15591627
                         1.16959610           0.60768372
                         0.38038900           0.39195739
    ****
    H   2
    S   3 1.00
                         3.42525091           0.15432897
                         0.62391373           0.53532814
                         0.16885540           0.44463454
    ****
    H   3
    S   3 1.00
                         3.42525091           0.15432897
                         0.62391373           0.53532814
                         0.16885540           0.44463454
    ****


    No. basis functions:                7
    cholesky_tolerance:             1.000000e-12
    No. electrons:                     10
    e_convergence:              1.000e-08
    d_convergence:              1.000e-08
    maxiter:                        10000



    Guess energy:      -74.962944614584

    ==>  Begin SCF Iterations <==

     Iter               energy                   dE          RMS |[F,P]| 
        0     -74.958642623702       0.004301990882       0.000140347233
        1     -74.958643066685      -0.000000442983       0.000045910473
        2     -74.958643500391      -0.000000433705       0.000017414863
        3     -74.958643641542      -0.000000141152       0.000002453312
        4     -74.958643764068      -0.000000122526       0.000000380840
        5     -74.958643778264      -0.000000014195       0.000000001881
        6     -74.958643777633       0.000000000631       0.000000001527

    SCF iterations converged!


    ==> dipole self-energy: 1/2 lambda^2 ( <mu_e^2> - <mu_e>^2 ) <==

    one-electron part;        0.007422056314
    two-electron part:       -0.003011481362
    total:                    0.004410574952


    ==> dipole variance: ( <mu_e^2> - <mu_e>^2 ) <== 

    one electron (xx):       4.531069819542
    one electron (xy):      -0.000000000000
    one electron (xz):      -0.000000000000
    one electron (yy):       7.334258955658
    one electron (yz):       0.000000000000
    one electron (zz):       5.937645051383

    two electron (xx):      -1.665896968503
    two electron (xy):      -0.000000000000
    two electron (xz):       0.000000000000
    two electron (yy):      -3.196640829171
    two electron (yz):      -0.000000000000
    two electron (zz):      -2.409185089418

    total (xx):              2.865172851039
    total (xy):             -0.000000000000
    total (xz):             -0.000000000000
    total (yy):              4.137618126486
    total (yz):             -0.000000000000
    total (zz):              3.528459961965

    * Polaritonic RHF total energy:     -74.958643777633

 #  #
 Irrep: 1
      1:  -20.241224706547854
      2:   -1.268255957293146
      3:   -0.616658767162959
      4:   -0.452609718519445
      5:   -0.390498795137461
      6:    0.606400979989543
      7:    0.742064212957789

    Molecular point group: c1
    Full point group: C2v

    Geometry (in Angstrom), charge = 0, multiplicity = 1:

       Center              X                  Y                   Z               Mass       
    ------------   -----------------  -----------------  -----------------  -----------------
         O            0.000000000000     0.000000000000    -0.065655108083    15.994914619570
         H            0.000000000000    -0.757365949175     0.520997104927     1.007825032230
         H            0.000000000000     0.757365949175     0.520997104927     1.007825032230

  -AO BASIS SET INFORMATION:
    Name                   = STO-3G
    Blend                  = STO-3G
    Total number of shells = 5
    Number of primitives   = 15
    Number of AO           = 7
    Number of SO           = 7
    Maximum AM             = 1
    Spherical Harmonics    = TRUE

  -Contraction Scheme:
    Atom   Type   All Primitives // Shells:
   ------ ------ --------------------------
       1     O     6s 3p // 2s 1p 
       2     H     3s // 1s 
       3     H     3s // 1s 

  ==> AO Basis Functions <==

    [ STO-3G ]
    spherical
    ****
    O   1
    S   3 1.00
                       130.70932000           0.15432897
                        23.80886100           0.53532814
                         6.44360830           0.44463454
    S   3 1.00
                         5.03315130          -0.09996723
                         1.16959610           0.39951283
                         0.38038900           0.70011547
    P   3 1.00
                         5.03315130           0.15591627
                         1.16959610           0.60768372
                         0.38038900           0.39195739
    ****
    H   2
    S   3 1.00
                         3.42525091           0.15432897
                         0.62391373           0.53532814
                         0.16885540           0.44463454
    ****
    H   3
    S   3 1.00
                         3.42525091           0.15432897
                         0.62391373           0.53532814
                         0.16885540           0.44463454
    ****



        *******************************************************
        *                                                     *
        *                                                     *
        *    UCCSD                                            *
        *                                                     *
        *                                                     *
        *******************************************************

    ==> Hamiltonian type <==

        molecular


    Required memory:               0.4 mb


    No. basis functions:                7
    No. auxiliary basis functions:     28
    No. alpha electrons:                5
    No. beta electrons:                 5
    e_convergence:              1.000e-08
    r_convergence:              1.000e-08
    maxiter:                        10000



    ==>  Begin CCSD Iterations <==

     Iter               energy                   dE                 |dT| 
        0      -0.035982063850      -0.035982063850       0.230523636285
        1      -0.045372630463      -0.009390566613       0.066701585197
        2      -0.049721854496      -0.004349224033       0.024523773544
        3      -0.049912332090      -0.000190477594       0.003740837048
        4      -0.049931403610      -0.000019071520       0.000889346735
        5      -0.049931222634       0.000000180976       0.000209756161
        6      -0.049931825403      -0.000000602769       0.000018520835
        7      -0.049931713684       0.000000111719       0.000003813658
        8      -0.049931730086      -0.000000016402       0.000000687455
        9      -0.049931728017       0.000000002069       0.000000106041
       10      -0.049931727596       0.000000000421       0.000000023266
       11      -0.049931727774      -0.000000000178       0.000000003987

    CCSD iterations converged!

    * Polaritonic UCCSD total energy:     -75.008575505406

Scratch directory: /tmp/
   => Libint2 <=

    Primary   basis highest AM E, G, H:  6, 6, 3
    Auxiliary basis highest AM E, G, H:  7, 7, 4
    Onebody   basis highest AM E, G, H:  -, -, -
    Solid Harmonics ordering:            Gaussian

*** tstart() called on WE52847
*** at Tue May  6 15:33:04 2025

   => Loading Basis Set <=

    Name: STO-3G
    Role: ORBITAL
    Keyword: BASIS
    atoms 1   entry O          line    81 file /home/marklie/miniconda3/envs/pdev/share/psi4/basis/sto-3g.gbs 
    atoms 2-3 entry H          line    19 file /home/marklie/miniconda3/envs/pdev/share/psi4/basis/sto-3g.gbs 


         ---------------------------------------------------------
                                   SCF
               by Justin Turney, Rob Parrish, Andy Simmonett
                          and Daniel G. A. Smith
                              RHF Reference
                       12 Threads,    953 MiB Core
         ---------------------------------------------------------

  ==> Geometry <==

    Molecular point group: c1
    Full point group: C2v

    Geometry (in Angstrom), charge = 0, multiplicity = 1:

       Center              X                  Y                   Z               Mass       
    ------------   -----------------  -----------------  -----------------  -----------------
         O            0.000000000000     0.000000000000    -0.065655108083    15.994914619570
         H            0.000000000000    -0.757365949175     0.520997104927     1.007825032230
         H            0.000000000000     0.757365949175     0.520997104927     1.007825032230

  Running in c1 symmetry.

  Rotational constants: A =     27.36310  B =     14.58041  C =      9.51197 [cm^-1]
  Rotational constants: A = 820325.17390  B = 437109.76779  C = 285161.58919 [MHz]
  Nuclear repulsion =    9.187386457593393

  Charge       = 0
  Multiplicity = 1
  Electrons    = 10
  Nalpha       = 5
  Nbeta        = 5

  ==> Algorithm <==

  SCF Algorithm Type is CD.
  DIIS enabled.
  MOM disabled.
  Fractional occupation disabled.
  Guess Type is SAD.
  Energy threshold   = 1.00e-08
  Density threshold  = 1.00e-08
  Integral threshold = 1.00e-12

  ==> Primary Basis <==

  Basis Set: STO-3G
    Blend: STO-3G
    Number of shells: 5
    Number of basis functions: 7
    Number of Cartesian functions: 7
    Spherical Harmonics?: true
    Max angular momentum: 1

  ==> Integral Setup <==

  ==> CDJK: Cholesky-decomposed J/K Matrices <==

    J tasked:                     Yes
    K tasked:                     Yes
    wK tasked:                     No
    OpenMP threads:                12
    Integrals threads:             12
    Memory [MiB]:                 715
    Algorithm:                   Core
    Integral Cache:              SAVE
    Schwarz Cutoff:             1E-12
    Cholesky tolerance:      1.00E-12
    No. Cholesky vectors:          28

  Minimum eigenvalue in the overlap matrix is 3.4273419653E-01.
  Reciprocal condition number of the overlap matrix is 1.7758633656E-01.
    Using symmetric orthogonalization.

  ==> Pre-Iterations <==

  SCF Guess: Superposition of Atomic Densities via on-the-fly atomic UHF (no occupation information).

   -------------------------
    Irrep   Nso     Nmo    
   -------------------------
     A          7       7 
   -------------------------
    Total       7       7
   -------------------------

  ==> Iterations <==

                        Total Energy        Delta E     RMS |[F,P]|

   @RHF iter SAD:   -74.22030711444418   -7.42203e+01   0.00000e+00 
   @RHF iter   1:   -74.91363471074018   -6.93328e-01   3.54952e-02 ADIIS/DIIS
   @RHF iter   2:   -74.96213202689616   -4.84973e-02   5.35979e-03 ADIIS/DIIS
   @RHF iter   3:   -74.96298657213613   -8.54545e-04   1.25872e-03 ADIIS/DIIS
   @RHF iter   4:   -74.96305434560487   -6.77735e-05   1.24759e-04 ADIIS/DIIS
   @RHF iter   5:   -74.96305550011674   -1.15451e-06   8.34668e-06 DIIS
   @RHF iter   6:   -74.96305550410989   -3.99315e-09   5.04535e-07 DIIS
   @RHF iter   7:   -74.96305550412434   -1.44524e-11   1.62179e-09 DIIS
  Energy and wave function converged.


  ==> Post-Iterations <==

    Orbital Energies [Eh]
    ---------------------

    Doubly Occupied:                                                      

       1A    -20.241893     2A     -1.268049     3A     -0.617442  
       4A     -0.453000     5A     -0.391223  

    Virtual:                                                              

       6A      0.604952     7A      0.741324  

    Final Occupation by Irrep:
              A 
    DOCC [     5 ]
    NA   [     5 ]
    NB   [     5 ]

  @RHF Final Energy:   -74.96305550412434

   => Energetics <=

    Nuclear Repulsion Energy =              9.1873864575933926
    One-Electron Energy =                -122.3576685812238054
    Two-Electron Energy =                  38.2072266195060735
    Total Energy =                        -74.9630555041243412

Computation Completed


Properties will be evaluated at   0.000000,   0.000000,   0.000000 [a0]

Properties computed using the SCF density matrix


 Multipole Moments:

 ------------------------------------------------------------------------------------
     Multipole            Electronic (a.u.)      Nuclear  (a.u.)        Total (a.u.)
 ------------------------------------------------------------------------------------

 L = 1.  Multiply by 2.5417464519 to convert [e a0] to [Debye]
 Dipole X            :          0.0000000            0.0000000            0.0000000
 Dipole Y            :          0.0000000            0.0000000            0.0000000
 Dipole Z            :         -0.2978450            0.9765223            0.6786773
 Magnitude           :                                                    0.6786773

 ------------------------------------------------------------------------------------

*** tstop() called on WE52847 at Tue May  6 15:33:04 2025
Module time:
	user time   =       2.34 seconds =       0.04 minutes
	system time =       0.08 seconds =       0.00 minutes
	total time  =          0 seconds =       0.00 minutes
Total time:
	user time   =      15.59 seconds =       0.26 minutes
	system time =       0.46 seconds =       0.01 minutes
	total time  =          2 seconds =       0.03 minutes
   => Loading Basis Set <=

    Name: (STO-3G AUX)
    Role: JKFIT
    Keyword: DF_BASIS_SCF
    atoms 1   entry O          line   318 file /home/marklie/miniconda3/envs/pdev/share/psi4/basis/def2-universal-jkfit.gbs 
    atoms 2-3 entry H          line    18 file /home/marklie/miniconda3/envs/pdev/share/psi4/basis/def2-universal-jkfit.gbs 

   => Loading Basis Set <=

    Name: (STO-3G AUX)
    Role: RIFIT
    Keyword: DF_BASIS_CC
    atoms 1   entry O          line   233 file /home/marklie/miniconda3/envs/pdev/share/psi4/basis/def2-svp-ri.gbs 
    atoms 2-3 entry H          line    22 file /home/marklie/miniconda3/envs/pdev/share/psi4/basis/def2-svp-ri.gbs 


Reading options from the HILBERT block
Calling plugin hilbert.so.


Plugins that use gradients: set Da, Db, and Lagrangian for gradient theory on the wavefunction. The old way of passing these will stop working as soon as 1.8.    Molecular point group: c1
    Full point group: C2v

    Geometry (in Angstrom), charge = 0, multiplicity = 1:

       Center              X                  Y                   Z               Mass       
    ------------   -----------------  -----------------  -----------------  -----------------
         O            0.000000000000     0.000000000000    -0.065655108083    15.994914619570
         H            0.000000000000    -0.757365949175     0.520997104927     1.007825032230
         H            0.000000000000     0.757365949175     0.520997104927     1.007825032230

  -AO BASIS SET INFORMATION:
    Name                   = STO-3G
    Blend                  = STO-3G
    Total number of shells = 5
    Number of primitives   = 15
    Number of AO           = 7
    Number of SO           = 7
    Maximum AM             = 1
    Spherical Harmonics    = TRUE

  -Contraction Scheme:
    Atom   Type   All Primitives // Shells:
   ------ ------ --------------------------
       1     O     6s 3p // 2s 1p 
       2     H     3s // 1s 
       3     H     3s // 1s 

  ==> AO Basis Functions <==

    [ STO-3G ]
    spherical
    ****
    O   1
    S   3 1.00
                       130.70932000           0.15432897
                        23.80886100           0.53532814
                         6.44360830           0.44463454
    S   3 1.00
                         5.03315130          -0.09996723
                         1.16959610           0.39951283
                         0.38038900           0.70011547
    P   3 1.00
                         5.03315130           0.15591627
                         1.16959610           0.60768372
                         0.38038900           0.39195739
    ****
    H   2
    S   3 1.00
                         3.42525091           0.15432897
                         0.62391373           0.53532814
                         0.16885540           0.44463454
    ****
    H   3
    S   3 1.00
                         3.42525091           0.15432897
                         0.62391373           0.53532814
                         0.16885540           0.44463454
    ****



        *******************************************************
        *                                                     *
        *                                                     *
        *    Polaritonic RHF                                  *
        *                                                     *
        *                                                     *
        *******************************************************
    Molecular point group: c1
    Full point group: C2v

    Geometry (in Angstrom), charge = 0, multiplicity = 1:

       Center              X                  Y                   Z               Mass       
    ------------   -----------------  -----------------  -----------------  -----------------
         O            0.000000000000     0.000000000000    -0.065655108083    15.994914619570
         H            0.000000000000    -0.757365949175     0.520997104927     1.007825032230
         H            0.000000000000     0.757365949175     0.520997104927     1.007825032230

  -AO BASIS SET INFORMATION:
    Name                   = STO-3G
    Blend                  = STO-3G
    Total number of shells = 5
    Number of primitives   = 15
    Number of AO           = 7
    Number of SO           = 7
    Maximum AM             = 1
    Spherical Harmonics    = TRUE

  -Contraction Scheme:
    Atom   Type   All Primitives // Shells:
   ------ ------ --------------------------
       1     O     6s 3p // 2s 1p 
       2     H     3s // 1s 
       3     H     3s // 1s 

  ==> AO Basis Functions <==

    [ STO-3G ]
    spherical
    ****
    O   1
    S   3 1.00
                       130.70932000           0.15432897
                        23.80886100           0.53532814
                         6.44360830           0.44463454
    S   3 1.00
                         5.03315130          -0.09996723
                         1.16959610           0.39951283
                         0.38038900           0.70011547
    P   3 1.00
                         5.03315130           0.15591627
                         1.16959610           0.60768372
                         0.38038900           0.39195739
    ****
    H   2
    S   3 1.00
                         3.42525091           0.15432897
                         0.62391373           0.53532814
                         0.16885540           0.44463454
    ****
    H   3
    S   3 1.00
                         3.42525091           0.15432897
                         0.62391373           0.53532814
                         0.16885540           0.44463454
    ****


    No. basis functions:                7
    cholesky_tolerance:             1.000000e-12
    No. electrons:                     10
    e_convergence:              1.000e-08
    d_convergence:              1.000e-08
    maxiter:                        10000



    Guess energy:      -74.962944614584

    ==>  Begin SCF Iterations <==

     Iter               energy                   dE          RMS |[F,P]| 
        0     -74.958642623702       0.004301990882       0.000140347233
        1     -74.958643066685      -0.000000442983       0.000045910473
        2     -74.958643500391      -0.000000433705       0.000017414863
        3     -74.958643641542      -0.000000141152       0.000002453312
        4     -74.958643764068      -0.000000122526       0.000000380840
        5     -74.958643778263      -0.000000014195       0.000000001881
        6     -74.958643777633       0.000000000630       0.000000001527

    SCF iterations converged!


    ==> dipole self-energy: 1/2 lambda^2 ( <mu_e^2> - <mu_e>^2 ) <==

    one-electron part;        0.007422056314
    two-electron part:       -0.003011481362
    total:                    0.004410574952


    ==> dipole variance: ( <mu_e^2> - <mu_e>^2 ) <== 

    one electron (xx):       4.531069819542
    one electron (xy):      -0.000000000000
    one electron (xz):      -0.000000000000
    one electron (yy):       7.334258955658
    one electron (yz):       0.000000000000
    one electron (zz):       5.937645051383

    two electron (xx):      -1.665896968503
    two electron (xy):      -0.000000000000
    two electron (xz):       0.000000000000
    two electron (yy):      -3.196640829171
    two electron (yz):      -0.000000000000
    two electron (zz):      -2.409185089418

    total (xx):              2.865172851039
    total (xy):             -0.000000000000
    total (xz):              0.000000000000
    total (yy):              4.137618126486
    total (yz):              0.000000000000
    total (zz):              3.528459961965

    * Polaritonic RHF total energy:     -74.958643777633

 #  #
 Irrep: 1
      1:  -20.241224706547399
      2:   -1.268255957292891
      3:   -0.616658767162883
      4:   -0.452609718519098
      5:   -0.390498795137240
      6:    0.606400979990150
      7:    0.742064212957790

    Molecular point group: c1
    Full point group: C2v

    Geometry (in Angstrom), charge = 0, multiplicity = 1:

       Center              X                  Y                   Z               Mass       
    ------------   -----------------  -----------------  -----------------  -----------------
         O            0.000000000000     0.000000000000    -0.065655108083    15.994914619570
         H            0.000000000000    -0.757365949175     0.520997104927     1.007825032230
         H            0.000000000000     0.757365949175     0.520997104927     1.007825032230

  -AO BASIS SET INFORMATION:
    Name                   = STO-3G
    Blend                  = STO-3G
    Total number of shells = 5
    Number of primitives   = 15
    Number of AO           = 7
    Number of SO           = 7
    Maximum AM             = 1
    Spherical Harmonics    = TRUE

  -Contraction Scheme:
    Atom   Type   All Primitives // Shells:
   ------ ------ --------------------------
       1     O     6s 3p // 2s 1p 
       2     H     3s // 1s 
       3     H     3s // 1s 

  ==> AO Basis Functions <==

    [ STO-3G ]
    spherical
    ****
    O   1
    S   3 1.00
                       130.70932000           0.15432897
                        23.80886100           0.53532814
                         6.44360830           0.44463454
    S   3 1.00
                         5.03315130          -0.09996723
                         1.16959610           0.39951283
                         0.38038900           0.70011547
    P   3 1.00
                         5.03315130           0.15591627
                         1.16959610           0.60768372
                         0.38038900           0.39195739
    ****
    H   2
    S   3 1.00
                         3.42525091           0.15432897
                         0.62391373           0.53532814
                         0.16885540           0.44463454
    ****
    H   3
    S   3 1.00
                         3.42525091           0.15432897
                         0.62391373           0.53532814
                         0.16885540           0.44463454
    ****



        *******************************************************
        *                                                     *
        *                      -----------                    *
        *                       CC CAVITY                     *
        *                      -----------                    *
        *                                                     *
        *******************************************************



    madness threads:                    1
    omp threads:                       12
    No. basis functions:                7
    No. auxiliary basis functions:     28
    No. alpha electrons:                5
    No. alpha virtuals:                 2
    No. beta electrons:                 5
    No. beta virtuals:                  2
    e_convergence:              1.000e-08
    r_convergence:              1.000e-08
    maxiter:                        10000


  Included amplitudes:
          T0,1      
      T1  T1,1      
      T2  T2,1      

  Dimension of CC amplitudes: 641

  V_cav (nm3) = 0.74485760
  lambda      = x: 0.00000000 y: 0.00000000 z: 0.05000000
  hw          = x:     0.0000 y: 0.00000000 z: 0.10000000
  electric dipole moments: x: -0.00000000 y: -0.00000000 z: -0.29604884
  average electric dipole self-energy: 0.00010956
  Using relaxed orbitals.

    ==>  Begin QED-CCSD-21 iterations <==    

 Iter           energy              dE            |dT|  |   |dT1|  |dT2| |dT0,1||dT1,1||dT2,1|
    0    0.000000000000  0.000000000000  0.124860766440 |   1e-08  1e-01  2e-09  1e-02  0e+00
    1   -0.035982063850 -0.035982063850  0.034384998449 |   1e-02  3e-02  3e-10  1e-03  1e-03
    2   -0.045372630463 -0.009390566613  0.013633529772 |   5e-03  1e-02  3e-03  5e-04  5e-04
    3   -0.049588719753 -0.004216089291  0.002980358313 |   2e-03  2e-03  3e-04  1e-04  1e-04
    4   -0.049919076724 -0.000330356971  0.000644726338 |   5e-04  4e-04  2e-05  5e-05  4e-05
    5   -0.049936467223 -0.000017390498  0.000165866399 |   1e-04  1e-04  3e-05  2e-05  1e-05
    6   -0.049931821995  0.000004645228  0.000012077086 |   6e-06  1e-05  3e-07  2e-06  2e-06
    7   -0.049931782767  0.000000039228  0.000002316582 |   7e-07  2e-06  2e-07  5e-07  4e-07
    8   -0.049931706170  0.000000076597  0.000000432866 |   1e-07  3e-07  2e-07  7e-08  7e-08
    9   -0.049931733923 -0.000000027753  0.000000063038 |   2e-08  6e-08  2e-08  8e-09  1e-08
   10   -0.049931728356  0.000000005567  0.000000013552 |   4e-09  1e-08  2e-09  8e-10  3e-09
   11   -0.049931727469  0.000000000887  0.000000001901 |   4e-10  2e-09  2e-10  3e-10  6e-10

    QED-CCSD-21 iterations converged!

    * QED-CCSD-21 total energy:     -75.008575505102


   Norms of cluster amplitudes:
   ------------------------------
     T1:  0.019802097802 |  1.36 %
     T2:  0.168390713233 | 98.15 %
   T0,1:  0.004609125468 |  0.07 %
   T1,1:  0.010774524680 |  0.40 %
   T2,1:  0.001900196861 |  0.01 %
   ------------------------------
    Total:  0.169966174718

  ==> Time spent in CC iterations <==  
                    Total: 5.648 s
      Residuals Equations: total =    2.041 s | average = 157.035 ms
      Transform Integrals: total =    3.731 s | average = 286.973 ms
        Update Amplitudes: total = 183.406 ms | average =   7.054 ms


Scratch directory: /tmp/
   => Libint2 <=

    Primary   basis highest AM E, G, H:  6, 6, 3
    Auxiliary basis highest AM E, G, H:  7, 7, 4
    Onebody   basis highest AM E, G, H:  -, -, -
    Solid Harmonics ordering:            Gaussian

*** tstart() called on WE52847
*** at Tue May  6 15:33:10 2025

   => Loading Basis Set <=

    Name: STO-3G
    Role: ORBITAL
    Keyword: BASIS
    atoms 1   entry O          line    81 file /home/marklie/miniconda3/envs/pdev/share/psi4/basis/sto-3g.gbs 
    atoms 2-3 entry H          line    19 file /home/marklie/miniconda3/envs/pdev/share/psi4/basis/sto-3g.gbs 


         ---------------------------------------------------------
                                   SCF
               by Justin Turney, Rob Parrish, Andy Simmonett
                          and Daniel G. A. Smith
                              RHF Reference
                       12 Threads,    953 MiB Core
         ---------------------------------------------------------

  ==> Geometry <==

    Molecular point group: c1
    Full point group: C2v

    Geometry (in Angstrom), charge = 0, multiplicity = 1:

       Center              X                  Y                   Z               Mass       
    ------------   -----------------  -----------------  -----------------  -----------------
         O            0.000000000000     0.000000000000    -0.065655108083    15.994914619570
         H            0.000000000000    -0.757365949175     0.520997104927     1.007825032230
         H            0.000000000000     0.757365949175     0.520997104927     1.007825032230

  Running in c1 symmetry.

  Rotational constants: A =     27.36310  B =     14.58041  C =      9.51197 [cm^-1]
  Rotational constants: A = 820325.17390  B = 437109.76779  C = 285161.58919 [MHz]
  Nuclear repulsion =    9.187386457593393

  Charge       = 0
  Multiplicity = 1
  Electrons    = 10
  Nalpha       = 5
  Nbeta        = 5

  ==> Algorithm <==

  SCF Algorithm Type is CD.
  DIIS enabled.
  MOM disabled.
  Fractional occupation disabled.
  Guess Type is SAD.
  Energy threshold   = 1.00e-08
  Density threshold  = 1.00e-08
  Integral threshold = 1.00e-12

  ==> Primary Basis <==

  Basis Set: STO-3G
    Blend: STO-3G
    Number of shells: 5
    Number of basis functions: 7
    Number of Cartesian functions: 7
    Spherical Harmonics?: true
    Max angular momentum: 1

  ==> Integral Setup <==

  ==> CDJK: Cholesky-decomposed J/K Matrices <==

    J tasked:                     Yes
    K tasked:                     Yes
    wK tasked:                     No
    OpenMP threads:                12
    Integrals threads:             12
    Memory [MiB]:                 715
    Algorithm:                   Core
    Integral Cache:              SAVE
    Schwarz Cutoff:             1E-12
    Cholesky tolerance:      1.00E-12
    No. Cholesky vectors:          28

  Minimum eigenvalue in the overlap matrix is 3.4273419653E-01.
  Reciprocal condition number of the overlap matrix is 1.7758633656E-01.
    Using symmetric orthogonalization.

  ==> Pre-Iterations <==

  SCF Guess: Superposition of Atomic Densities via on-the-fly atomic UHF (no occupation information).

   -------------------------
    Irrep   Nso     Nmo    
   -------------------------
     A          7       7 
   -------------------------
    Total       7       7
   -------------------------

  ==> Iterations <==

                        Total Energy        Delta E     RMS |[F,P]|

   @RHF iter SAD:   -74.22030711444418   -7.42203e+01   0.00000e+00 
   @RHF iter   1:   -74.91363471074013   -6.93328e-01   3.54952e-02 ADIIS/DIIS
   @RHF iter   2:   -74.96213202689609   -4.84973e-02   5.35979e-03 ADIIS/DIIS
   @RHF iter   3:   -74.96298657213607   -8.54545e-04   1.25872e-03 ADIIS/DIIS
   @RHF iter   4:   -74.96305434560486   -6.77735e-05   1.24759e-04 ADIIS/DIIS
   @RHF iter   5:   -74.96305550011678   -1.15451e-06   8.34668e-06 DIIS
   @RHF iter   6:   -74.96305550410992   -3.99314e-09   5.04535e-07 DIIS
   @RHF iter   7:   -74.96305550412438   -1.44667e-11   1.62180e-09 DIIS
  Energy and wave function converged.


  ==> Post-Iterations <==

    Orbital Energies [Eh]
    ---------------------

    Doubly Occupied:                                                      

       1A    -20.241893     2A     -1.268049     3A     -0.617442  
       4A     -0.453000     5A     -0.391223  

    Virtual:                                                              

       6A      0.604952     7A      0.741324  

    Final Occupation by Irrep:
              A 
    DOCC [     5 ]
    NA   [     5 ]
    NB   [     5 ]

  @RHF Final Energy:   -74.96305550412438

   => Energetics <=

    Nuclear Repulsion Energy =              9.1873864575933926
    One-Electron Energy =                -122.3576685812236349
    Two-Electron Energy =                  38.2072266195058532
    Total Energy =                        -74.9630555041243838

Computation Completed


Properties will be evaluated at   0.000000,   0.000000,   0.000000 [a0]

Properties computed using the SCF density matrix


 Multipole Moments:

 ------------------------------------------------------------------------------------
     Multipole            Electronic (a.u.)      Nuclear  (a.u.)        Total (a.u.)
 ------------------------------------------------------------------------------------

 L = 1.  Multiply by 2.5417464519 to convert [e a0] to [Debye]
 Dipole X            :          0.0000000            0.0000000            0.0000000
 Dipole Y            :          0.0000000            0.0000000            0.0000000
 Dipole Z            :         -0.2978450            0.9765223            0.6786773
 Magnitude           :                                                    0.6786773

 ------------------------------------------------------------------------------------

*** tstop() called on WE52847 at Tue May  6 15:33:10 2025
Module time:
	user time   =       4.94 seconds =       0.08 minutes
	system time =       0.16 seconds =       0.00 minutes
	total time  =          0 seconds =       0.00 minutes
Total time:
	user time   =      30.72 seconds =       0.51 minutes
	system time =       0.69 seconds =       0.01 minutes
	total time  =          8 seconds =       0.13 minutes
   => Loading Basis Set <=

    Name: (STO-3G AUX)
    Role: JKFIT
    Keyword: DF_BASIS_SCF
    atoms 1   entry O          line   318 file /home/marklie/miniconda3/envs/pdev/share/psi4/basis/def2-universal-jkfit.gbs 
    atoms 2-3 entry H          line    18 file /home/marklie/miniconda3/envs/pdev/share/psi4/basis/def2-universal-jkfit.gbs 

   => Loading Basis Set <=

    Name: (STO-3G AUX)
    Role: RIFIT
    Keyword: DF_BASIS_CC
    atoms 1   entry O          line   233 file /home/marklie/miniconda3/envs/pdev/share/psi4/basis/def2-svp-ri.gbs 
    atoms 2-3 entry H          line    22 file /home/marklie/miniconda3/envs/pdev/share/psi4/basis/def2-svp-ri.gbs 


Reading options from the HILBERT block
Calling plugin hilbert.so.


Plugins that use gradients: set Da, Db, and Lagrangian for gradient theory on the wavefunction. The old way of passing these will stop working as soon as 1.8.    Molecular point group: c1
    Full point group: C2v

    Geometry (in Angstrom), charge = 0, multiplicity = 1:

       Center              X                  Y                   Z               Mass       
    ------------   -----------------  -----------------  -----------------  -----------------
         O            0.000000000000     0.000000000000    -0.065655108083    15.994914619570
         H            0.000000000000    -0.757365949175     0.520997104927     1.007825032230
         H            0.000000000000     0.757365949175     0.520997104927     1.007825032230

  -AO BASIS SET INFORMATION:
    Name                   = STO-3G
    Blend                  = STO-3G
    Total number of shells = 5
    Number of primitives   = 15
    Number of AO           = 7
    Number of SO           = 7
    Maximum AM             = 1
    Spherical Harmonics    = TRUE

  -Contraction Scheme:
    Atom   Type   All Primitives // Shells:
   ------ ------ --------------------------
       1     O     6s 3p // 2s 1p 
       2     H     3s // 1s 
       3     H     3s // 1s 

  ==> AO Basis Functions <==

    [ STO-3G ]
    spherical
    ****
    O   1
    S   3 1.00
                       130.70932000           0.15432897
                        23.80886100           0.53532814
                         6.44360830           0.44463454
    S   3 1.00
                         5.03315130          -0.09996723
                         1.16959610           0.39951283
                         0.38038900           0.70011547
    P   3 1.00
                         5.03315130           0.15591627
                         1.16959610           0.60768372
                         0.38038900           0.39195739
    ****
    H   2
    S   3 1.00
                         3.42525091           0.15432897
                         0.62391373           0.53532814
                         0.16885540           0.44463454
    ****
    H   3
    S   3 1.00
                         3.42525091           0.15432897
                         0.62391373           0.53532814
                         0.16885540           0.44463454
    ****



        *******************************************************
        *                                                     *
        *                                                     *
        *    Polaritonic RHF                                  *
        *                                                     *
        *                                                     *
        *******************************************************
    Molecular point group: c1
    Full point group: C2v

    Geometry (in Angstrom), charge = 0, multiplicity = 1:

       Center              X                  Y                   Z               Mass       
    ------------   -----------------  -----------------  -----------------  -----------------
         O            0.000000000000     0.000000000000    -0.065655108083    15.994914619570
         H            0.000000000000    -0.757365949175     0.520997104927     1.007825032230
         H            0.000000000000     0.757365949175     0.520997104927     1.007825032230

  -AO BASIS SET INFORMATION:
    Name                   = STO-3G
    Blend                  = STO-3G
    Total number of shells = 5
    Number of primitives   = 15
    Number of AO           = 7
    Number of SO           = 7
    Maximum AM             = 1
    Spherical Harmonics    = TRUE

  -Contraction Scheme:
    Atom   Type   All Primitives // Shells:
   ------ ------ --------------------------
       1     O     6s 3p // 2s 1p 
       2     H     3s // 1s 
       3     H     3s // 1s 

  ==> AO Basis Functions <==

    [ STO-3G ]
    spherical
    ****
    O   1
    S   3 1.00
                       130.70932000           0.15432897
                        23.80886100           0.53532814
                         6.44360830           0.44463454
    S   3 1.00
                         5.03315130          -0.09996723
                         1.16959610           0.39951283
                         0.38038900           0.70011547
    P   3 1.00
                         5.03315130           0.15591627
                         1.16959610           0.60768372
                         0.38038900           0.39195739
    ****
    H   2
    S   3 1.00
                         3.42525091           0.15432897
                         0.62391373           0.53532814
                         0.16885540           0.44463454
    ****
    H   3
    S   3 1.00
                         3.42525091           0.15432897
                         0.62391373           0.53532814
                         0.16885540           0.44463454
    ****


    No. basis functions:                7
    cholesky_tolerance:             1.000000e-12
    No. electrons:                     10
    e_convergence:              1.000e-08
    d_convergence:              1.000e-08
    maxiter:                        10000



    Guess energy:      -74.962944614584

    ==>  Begin SCF Iterations <==

     Iter               energy                   dE          RMS |[F,P]| 
        0     -74.958642623702       0.004301990882       0.000140347233
        1     -74.958643066685      -0.000000442983       0.000045910473
        2     -74.958643500391      -0.000000433705       0.000017414863
        3     -74.958643641542      -0.000000141152       0.000002453312
        4     -74.958643764068      -0.000000122526       0.000000380840
        5     -74.958643778263      -0.000000014195       0.000000001881
        6     -74.958643777633       0.000000000630       0.000000001527

    SCF iterations converged!


    ==> dipole self-energy: 1/2 lambda^2 ( <mu_e^2> - <mu_e>^2 ) <==

    one-electron part;        0.007422056314
    two-electron part:       -0.003011481362
    total:                    0.004410574952


    ==> dipole variance: ( <mu_e^2> - <mu_e>^2 ) <== 

    one electron (xx):       4.531069819542
    one electron (xy):       0.000000000000
    one electron (xz):       0.000000000000
    one electron (yy):       7.334258955658
    one electron (yz):       0.000000000000
    one electron (zz):       5.937645051383

    two electron (xx):      -1.665896968503
    two electron (xy):      -0.000000000000
    two electron (xz):      -0.000000000000
    two electron (yy):      -3.196640829171
    two electron (yz):      -0.000000000000
    two electron (zz):      -2.409185089418

    total (xx):              2.865172851039
    total (xy):              0.000000000000
    total (xz):              0.000000000000
    total (yy):              4.137618126486
    total (yz):              0.000000000000
    total (zz):              3.528459961965

    * Polaritonic RHF total energy:     -74.958643777633

 #  #
 Irrep: 1
      1:  -20.241224706547108
      2:   -1.268255957292662
      3:   -0.616658767162886
      4:   -0.452609718518812
      5:   -0.390498795137070
      6:    0.606400979990666
      7:    0.742064212957713

    Molecular point group: c1
    Full point group: C2v

    Geometry (in Angstrom), charge = 0, multiplicity = 1:

       Center              X                  Y                   Z               Mass       
    ------------   -----------------  -----------------  -----------------  -----------------
         O            0.000000000000     0.000000000000    -0.065655108083    15.994914619570
         H            0.000000000000    -0.757365949175     0.520997104927     1.007825032230
         H            0.000000000000     0.757365949175     0.520997104927     1.007825032230

  -AO BASIS SET INFORMATION:
    Name                   = STO-3G
    Blend                  = STO-3G
    Total number of shells = 5
    Number of primitives   = 15
    Number of AO           = 7
    Number of SO           = 7
    Maximum AM             = 1
    Spherical Harmonics    = TRUE

  -Contraction Scheme:
    Atom   Type   All Primitives // Shells:
   ------ ------ --------------------------
       1     O     6s 3p // 2s 1p 
       2     H     3s // 1s 
       3     H     3s // 1s 

  ==> AO Basis Functions <==

    [ STO-3G ]
    spherical
    ****
    O   1
    S   3 1.00
                       130.70932000           0.15432897
                        23.80886100           0.53532814
                         6.44360830           0.44463454
    S   3 1.00
                         5.03315130          -0.09996723
                         1.16959610           0.39951283
                         0.38038900           0.70011547
    P   3 1.00
                         5.03315130           0.15591627
                         1.16959610           0.60768372
                         0.38038900           0.39195739
    ****
    H   2
    S   3 1.00
                         3.42525091           0.15432897
                         0.62391373           0.53532814
                         0.16885540           0.44463454
    ****
    H   3
    S   3 1.00
                         3.42525091           0.15432897
                         0.62391373           0.53532814
                         0.16885540           0.44463454
    ****



        *******************************************************
        *                                                     *
        *                      -----------                    *
        *                       CC CAVITY                     *
        *                      -----------                    *
        *                                                     *
        *******************************************************



    madness threads:                    1
    omp threads:                       12
    No. basis functions:                7
    No. auxiliary basis functions:     28
    No. alpha electrons:                5
    No. alpha virtuals:                 2
    No. beta electrons:                 5
    No. beta virtuals:                  2
    e_convergence:              1.000e-08
    r_convergence:              1.000e-08
    maxiter:                        10000


  Included amplitudes:
          T0,1  T0,2
      T1  T1,1  T1,2
      T2  T2,1  T2,2

  Dimension of CC amplitudes: 962

  V_cav (nm3) = 0.74485760
  lambda      = x: 0.00000000 y: 0.00000000 z: 0.05000000
  hw          = x:     0.0000 y: 0.00000000 z: 0.10000000
  electric dipole moments: x: 0.00000000 y: -0.00000000 z: -0.29604884
  average electric dipole self-energy: 0.00010956
  Using relaxed orbitals.

    ==>  Begin QED-CCSD-22 iterations <==    

 Iter           energy              dE            |dT|  |   |dT1|  |dT2| |dT0,1||dT1,1||dT2,1||dT0,2||dT1,2||dT2,2|
    0    0.000000000000  0.000000000000  0.124860766440 |   1e-08  1e-01  2e-09  1e-02  0e+00  0e+00  0e+00  0e+00
    1   -0.035982063850 -0.035982063850  0.034402546363 |   1e-02  3e-02  3e-10  1e-03  1e-03  1e-03  1e-04  2e-05
    2   -0.045372630463 -0.009390566613  0.013679035803 |   5e-03  1e-02  3e-03  5e-04  5e-04  1e-03  4e-05  4e-05
    3   -0.049564030567 -0.004191400104  0.003682103365 |   2e-03  2e-03  3e-04  1e-04  1e-04  2e-03  8e-05  6e-05
    4   -0.049885591282 -0.000321560715  0.002784893986 |   7e-04  7e-04  1e-04  9e-05  5e-05  3e-03  7e-05  6e-05
    5   -0.049928031459 -0.000042440178  0.000457464418 |   3e-04  2e-04  2e-05  4e-05  3e-05  2e-04  8e-06  6e-06
    6   -0.049935440424 -0.000007408965  0.000106113332 |   8e-05  7e-05  1e-05  1e-05  7e-06  8e-06  2e-05  1e-05
    7   -0.049932127882  0.000003312542  0.000036792997 |   5e-06  8e-06  8e-06  2e-06  1e-06  2e-05  2e-05  2e-05
    8   -0.049931933357  0.000000194525  0.000007004190 |   2e-06  5e-06  1e-06  9e-07  8e-07  3e-06  3e-06  3e-06
    9   -0.049931908617  0.000000024740  0.000002519111 |   3e-07  1e-06  2e-08  2e-07  2e-07  8e-07  7e-07  2e-06
   10   -0.049931899956  0.000000008662  0.000000662904 |   1e-07  4e-07  7e-08  1e-07  9e-08  3e-07  5e-08  4e-07
   11   -0.049931896115  0.000000003841  0.000000254422 |   4e-08  1e-07  7e-08  2e-08  2e-08  2e-07  6e-08  1e-07
   12   -0.049931897386 -0.000000001271  0.000000061680 |   2e-08  4e-08  2e-08  7e-09  8e-09  8e-09  1e-08  4e-08
   13   -0.049931898284 -0.000000000897  0.000000024025 |   4e-09  1e-08  4e-09  1e-09  2e-09  1e-08  4e-09  2e-08
   14   -0.049931898148  0.000000000136  0.000000006892 |   9e-10  4e-09  1e-10  2e-10  8e-10  2e-09  1e-09  5e-09

    QED-CCSD-22 iterations converged!

    * QED-CCSD-22 total energy:     -75.008575675781


   Norms of cluster amplitudes:
   ------------------------------
     T1:  0.019802508022 |  1.36 %
     T2:  0.168390663940 | 98.15 %
   T0,1:  0.004626799943 |  0.07 %
   T1,1:  0.010789826173 |  0.40 %
   T2,1:  0.001902545751 |  0.01 %
   T0,2:  0.000597000844 |  0.00 %
   T1,2:  0.000099164757 |  0.00 %
   T2,2:  0.000030287681 |  0.00 %
   ------------------------------
    Total:  0.169968730930

  ==> Time spent in CC iterations <==  
                    Total: 10.718 s
      Residuals Equations: total =    5.906 s | average = 369.141 ms
      Transform Integrals: total =    4.625 s | average = 289.083 ms
        Update Amplitudes: total = 488.565 ms | average =  15.268 ms


Scratch directory: /tmp/
   => Libint2 <=

    Primary   basis highest AM E, G, H:  6, 6, 3
    Auxiliary basis highest AM E, G, H:  7, 7, 4
    Onebody   basis highest AM E, G, H:  -, -, -
    Solid Harmonics ordering:            Gaussian

*** tstart() called on WE52847
*** at Tue May  6 15:33:22 2025

   => Loading Basis Set <=

    Name: STO-3G
    Role: ORBITAL
    Keyword: BASIS
    atoms 1   entry O          line    81 file /home/marklie/miniconda3/envs/pdev/share/psi4/basis/sto-3g.gbs 
    atoms 2-3 entry H          line    19 file /home/marklie/miniconda3/envs/pdev/share/psi4/basis/sto-3g.gbs 


         ---------------------------------------------------------
                                   SCF
               by Justin Turney, Rob Parrish, Andy Simmonett
                          and Daniel G. A. Smith
                              RHF Reference
                       12 Threads,    953 MiB Core
         ---------------------------------------------------------

  ==> Geometry <==

    Molecular point group: c1
    Full point group: C2v

    Geometry (in Angstrom), charge = 0, multiplicity = 1:

       Center              X                  Y                   Z               Mass       
    ------------   -----------------  -----------------  -----------------  -----------------
         O            0.000000000000     0.000000000000    -0.065655108083    15.994914619570
         H            0.000000000000    -0.757365949175     0.520997104927     1.007825032230
         H            0.000000000000     0.757365949175     0.520997104927     1.007825032230

  Running in c1 symmetry.

  Rotational constants: A =     27.36310  B =     14.58041  C =      9.51197 [cm^-1]
  Rotational constants: A = 820325.17390  B = 437109.76779  C = 285161.58919 [MHz]
  Nuclear repulsion =    9.187386457593393

  Charge       = 0
  Multiplicity = 1
  Electrons    = 10
  Nalpha       = 5
  Nbeta        = 5

  ==> Algorithm <==

  SCF Algorithm Type is CD.
  DIIS enabled.
  MOM disabled.
  Fractional occupation disabled.
  Guess Type is SAD.
  Energy threshold   = 1.00e-08
  Density threshold  = 1.00e-08
  Integral threshold = 1.00e-12

  ==> Primary Basis <==

  Basis Set: STO-3G
    Blend: STO-3G
    Number of shells: 5
    Number of basis functions: 7
    Number of Cartesian functions: 7
    Spherical Harmonics?: true
    Max angular momentum: 1

  ==> Integral Setup <==

  ==> CDJK: Cholesky-decomposed J/K Matrices <==

    J tasked:                     Yes
    K tasked:                     Yes
    wK tasked:                     No
    OpenMP threads:                12
    Integrals threads:             12
    Memory [MiB]:                 715
    Algorithm:                   Core
    Integral Cache:              SAVE
    Schwarz Cutoff:             1E-12
    Cholesky tolerance:      1.00E-12
    No. Cholesky vectors:          28

  Minimum eigenvalue in the overlap matrix is 3.4273419653E-01.
  Reciprocal condition number of the overlap matrix is 1.7758633656E-01.
    Using symmetric orthogonalization.

  ==> Pre-Iterations <==

  SCF Guess: Superposition of Atomic Densities via on-the-fly atomic UHF (no occupation information).

   -------------------------
    Irrep   Nso     Nmo    
   -------------------------
     A          7       7 
   -------------------------
    Total       7       7
   -------------------------

  ==> Iterations <==

                        Total Energy        Delta E     RMS |[F,P]|

   @RHF iter SAD:   -74.22030711444417   -7.42203e+01   0.00000e+00 
   @RHF iter   1:   -74.91363471074015   -6.93328e-01   3.54952e-02 ADIIS/DIIS
   @RHF iter   2:   -74.96213202689610   -4.84973e-02   5.35979e-03 ADIIS/DIIS
   @RHF iter   3:   -74.96298657213610   -8.54545e-04   1.25872e-03 ADIIS/DIIS
   @RHF iter   4:   -74.96305434560486   -6.77735e-05   1.24759e-04 ADIIS/DIIS
   @RHF iter   5:   -74.96305550011671   -1.15451e-06   8.34668e-06 DIIS
   @RHF iter   6:   -74.96305550410996   -3.99325e-09   5.04535e-07 DIIS
   @RHF iter   7:   -74.96305550412430   -1.43388e-11   1.62179e-09 DIIS
  Energy and wave function converged.


  ==> Post-Iterations <==

    Orbital Energies [Eh]
    ---------------------

    Doubly Occupied:                                                      

       1A    -20.241893     2A     -1.268049     3A     -0.617442  
       4A     -0.453000     5A     -0.391223  

    Virtual:                                                              

       6A      0.604952     7A      0.741324  

    Final Occupation by Irrep:
              A 
    DOCC [     5 ]
    NA   [     5 ]
    NB   [     5 ]

  @RHF Final Energy:   -74.96305550412430

   => Energetics <=

    Nuclear Repulsion Energy =              9.1873864575933926
    One-Electron Energy =                -122.3576685812236775
    Two-Electron Energy =                  38.2072266195059811
    Total Energy =                        -74.9630555041242985

Computation Completed


Properties will be evaluated at   0.000000,   0.000000,   0.000000 [a0]

Properties computed using the SCF density matrix


 Multipole Moments:

 ------------------------------------------------------------------------------------
     Multipole            Electronic (a.u.)      Nuclear  (a.u.)        Total (a.u.)
 ------------------------------------------------------------------------------------

 L = 1.  Multiply by 2.5417464519 to convert [e a0] to [Debye]
 Dipole X            :          0.0000000            0.0000000            0.0000000
 Dipole Y            :          0.0000000            0.0000000            0.0000000
 Dipole Z            :         -0.2978450            0.9765223            0.6786773
 Magnitude           :                                                    0.6786773

 ------------------------------------------------------------------------------------

*** tstop() called on WE52847 at Tue May  6 15:33:22 2025
Module time:
	user time   =       3.38 seconds =       0.06 minutes
	system time =       0.07 seconds =       0.00 minutes
	total time  =          0 seconds =       0.00 minutes
Total time:
	user time   =      49.70 seconds =       0.83 minutes
	system time =       0.87 seconds =       0.01 minutes
	total time  =         20 seconds =       0.33 minutes
   => Loading Basis Set <=

    Name: (STO-3G AUX)
    Role: JKFIT
    Keyword: DF_BASIS_SCF
    atoms 1   entry O          line   318 file /home/marklie/miniconda3/envs/pdev/share/psi4/basis/def2-universal-jkfit.gbs 
    atoms 2-3 entry H          line    18 file /home/marklie/miniconda3/envs/pdev/share/psi4/basis/def2-universal-jkfit.gbs 

   => Loading Basis Set <=

    Name: (STO-3G AUX)
    Role: RIFIT
    Keyword: DF_BASIS_CC
    atoms 1   entry O          line   233 file /home/marklie/miniconda3/envs/pdev/share/psi4/basis/def2-svp-ri.gbs 
    atoms 2-3 entry H          line    22 file /home/marklie/miniconda3/envs/pdev/share/psi4/basis/def2-svp-ri.gbs 


Reading options from the HILBERT block
Calling plugin hilbert.so.


Plugins that use gradients: set Da, Db, and Lagrangian for gradient theory on the wavefunction. The old way of passing these will stop working as soon as 1.8.    Molecular point group: c1
    Full point group: C2v

    Geometry (in Angstrom), charge = 0, multiplicity = 1:

       Center              X                  Y                   Z               Mass       
    ------------   -----------------  -----------------  -----------------  -----------------
         O            0.000000000000     0.000000000000    -0.065655108083    15.994914619570
         H            0.000000000000    -0.757365949175     0.520997104927     1.007825032230
         H            0.000000000000     0.757365949175     0.520997104927     1.007825032230

  -AO BASIS SET INFORMATION:
    Name                   = STO-3G
    Blend                  = STO-3G
    Total number of shells = 5
    Number of primitives   = 15
    Number of AO           = 7
    Number of SO           = 7
    Maximum AM             = 1
    Spherical Harmonics    = TRUE

  -Contraction Scheme:
    Atom   Type   All Primitives // Shells:
   ------ ------ --------------------------
       1     O     6s 3p // 2s 1p 
       2     H     3s // 1s 
       3     H     3s // 1s 

  ==> AO Basis Functions <==

    [ STO-3G ]
    spherical
    ****
    O   1
    S   3 1.00
                       130.70932000           0.15432897
                        23.80886100           0.53532814
                         6.44360830           0.44463454
    S   3 1.00
                         5.03315130          -0.09996723
                         1.16959610           0.39951283
                         0.38038900           0.70011547
    P   3 1.00
                         5.03315130           0.15591627
                         1.16959610           0.60768372
                         0.38038900           0.39195739
    ****
    H   2
    S   3 1.00
                         3.42525091           0.15432897
                         0.62391373           0.53532814
                         0.16885540           0.44463454
    ****
    H   3
    S   3 1.00
                         3.42525091           0.15432897
                         0.62391373           0.53532814
                         0.16885540           0.44463454
    ****



        *******************************************************
        *                                                     *
        *                                                     *
        *    Polaritonic RHF                                  *
        *                                                     *
        *                                                     *
        *******************************************************
    Molecular point group: c1
    Full point group: C2v

    Geometry (in Angstrom), charge = 0, multiplicity = 1:

       Center              X                  Y                   Z               Mass       
    ------------   -----------------  -----------------  -----------------  -----------------
         O            0.000000000000     0.000000000000    -0.065655108083    15.994914619570
         H            0.000000000000    -0.757365949175     0.520997104927     1.007825032230
         H            0.000000000000     0.757365949175     0.520997104927     1.007825032230

  -AO BASIS SET INFORMATION:
    Name                   = STO-3G
    Blend                  = STO-3G
    Total number of shells = 5
    Number of primitives   = 15
    Number of AO           = 7
    Number of SO           = 7
    Maximum AM             = 1
    Spherical Harmonics    = TRUE

  -Contraction Scheme:
    Atom   Type   All Primitives // Shells:
   ------ ------ --------------------------
       1     O     6s 3p // 2s 1p 
       2     H     3s // 1s 
       3     H     3s // 1s 

  ==> AO Basis Functions <==

    [ STO-3G ]
    spherical
    ****
    O   1
    S   3 1.00
                       130.70932000           0.15432897
                        23.80886100           0.53532814
                         6.44360830           0.44463454
    S   3 1.00
                         5.03315130          -0.09996723
                         1.16959610           0.39951283
                         0.38038900           0.70011547
    P   3 1.00
                         5.03315130           0.15591627
                         1.16959610           0.60768372
                         0.38038900           0.39195739
    ****
    H   2
    S   3 1.00
                         3.42525091           0.15432897
                         0.62391373           0.53532814
                         0.16885540           0.44463454
    ****
    H   3
    S   3 1.00
                         3.42525091           0.15432897
                         0.62391373           0.53532814
                         0.16885540           0.44463454
    ****


    No. basis functions:                7
    cholesky_tolerance:             1.000000e-12
    No. electrons:                     10
    e_convergence:              1.000e-08
    d_convergence:              1.000e-08
    maxiter:                        10000



    Guess energy:      -74.962944614584

    ==>  Begin SCF Iterations <==

     Iter               energy                   dE          RMS |[F,P]| 
        0     -74.958642623702       0.004301990882       0.000140347233
        1     -74.958643066685      -0.000000442983       0.000045910473
        2     -74.958643500391      -0.000000433705       0.000017414863
        3     -74.958643641542      -0.000000141152       0.000002453312
        4     -74.958643764068      -0.000000122526       0.000000380840
        5     -74.958643778263      -0.000000014195       0.000000001881
        6     -74.958643777633       0.000000000631       0.000000001527

    SCF iterations converged!


    ==> dipole self-energy: 1/2 lambda^2 ( <mu_e^2> - <mu_e>^2 ) <==

    one-electron part;        0.007422056314
    two-electron part:       -0.003011481362
    total:                    0.004410574952


    ==> dipole variance: ( <mu_e^2> - <mu_e>^2 ) <== 

    one electron (xx):       4.531069819542
    one electron (xy):      -0.000000000000
    one electron (xz):      -0.000000000000
    one electron (yy):       7.334258955658
    one electron (yz):      -0.000000000000
    one electron (zz):       5.937645051383

    two electron (xx):      -1.665896968503
    two electron (xy):       0.000000000000
    two electron (xz):       0.000000000000
    two electron (yy):      -3.196640829171
    two electron (yz):       0.000000000000
    two electron (zz):      -2.409185089418

    total (xx):              2.865172851039
    total (xy):             -0.000000000000
    total (xz):             -0.000000000000
    total (yy):              4.137618126486
    total (yz):             -0.000000000000
    total (zz):              3.528459961965

    * Polaritonic RHF total energy:     -74.958643777633

 #  #
 Irrep: 1
      1:  -20.241224706547172
      2:   -1.268255957292708
      3:   -0.616658767162906
      4:   -0.452609718518884
      5:   -0.390498795137122
      6:    0.606400979990560
      7:    0.742064212957701

    Molecular point group: c1
    Full point group: C2v

    Geometry (in Angstrom), charge = 0, multiplicity = 1:

       Center              X                  Y                   Z               Mass       
    ------------   -----------------  -----------------  -----------------  -----------------
         O            0.000000000000     0.000000000000    -0.065655108083    15.994914619570
         H            0.000000000000    -0.757365949175     0.520997104927     1.007825032230
         H            0.000000000000     0.757365949175     0.520997104927     1.007825032230

  -AO BASIS SET INFORMATION:
    Name                   = STO-3G
    Blend                  = STO-3G
    Total number of shells = 5
    Number of primitives   = 15
    Number of AO           = 7
    Number of SO           = 7
    Maximum AM             = 1
    Spherical Harmonics    = TRUE

  -Contraction Scheme:
    Atom   Type   All Primitives // Shells:
   ------ ------ --------------------------
       1     O     6s 3p // 2s 1p 
       2     H     3s // 1s 
       3     H     3s // 1s 

  ==> AO Basis Functions <==

    [ STO-3G ]
    spherical
    ****
    O   1
    S   3 1.00
                       130.70932000           0.15432897
                        23.80886100           0.53532814
                         6.44360830           0.44463454
    S   3 1.00
                         5.03315130          -0.09996723
                         1.16959610           0.39951283
                         0.38038900           0.70011547
    P   3 1.00
                         5.03315130           0.15591627
                         1.16959610           0.60768372
                         0.38038900           0.39195739
    ****
    H   2
    S   3 1.00
                         3.42525091           0.15432897
                         0.62391373           0.53532814
                         0.16885540           0.44463454
    ****
    H   3
    S   3 1.00
                         3.42525091           0.15432897
                         0.62391373           0.53532814
                         0.16885540           0.44463454
    ****



        *******************************************************
        *                                                     *
        *                      -----------                    *
        *                       CC CAVITY                     *
        *                      -----------                    *
        *                                                     *
        *******************************************************



[...]


--> Root 2 <--
  l1*r1
      1: ( ) -> ( 7a ) | l*r =       0.957331441494, l =   0.97690411, r =   0.97996460
  l1*r1 + hw
      1: ( ) -> ( 7a ) | l*r =       0.000456655804, l =   0.01875074, r =   0.02435402
  l2*r2
      1: ( 4a ) -> ( 6a,7a ) | l*r =       0.015911430405, l =  -0.13462598, r =  -0.11818989
      2: ( 3b ) -> ( 6a,6b ) | l*r =       0.007884028404, l =  -0.08823533, r =  -0.08935229
      3: ( 4b ) -> ( 6a,7b ) | l*r =       0.007121023014, l =  -0.08403926, r =  -0.08473448
      4: ( 3b ) -> ( 7a,7b ) | l*r =       0.006310247665, l =   0.08337828, r =   0.07568215
      5: ( 2a ) -> ( 6a,7a ) | l*r =       0.002003152226, l =  -0.04643452, r =  -0.04313929
      6: ( 4b ) -> ( 7a,6b ) | l*r =       0.001692399658, l =   0.05058672, r =   0.03345541
      7: ( 2b ) -> ( 7a,6b ) | l*r =       0.001189282748, l =   0.03539345, r =   0.03360177
      8: ( 2b ) -> ( 6a,7b ) | l*r =       0.000105304371, l =  -0.01104107, r =  -0.00953752
  l2*r2 + hw
      1: ( 3b ) -> ( 6a,6b ) | l*r =       0.000002531502, l =  -0.00121354, r =  -0.00208605
      2: ( 2a ) -> ( 6a,7a ) | l*r =       0.000001938815, l =  -0.00122876, r =  -0.00157787
      3: ( 4b ) -> ( 6a,7b ) | l*r =       0.000001516213, l =  -0.00089115, r =  -0.00170141
      4: ( 2b ) -> ( 6a,7b ) | l*r =       0.000000904731, l =  -0.00088212, r =  -0.00102563
      5: ( 2b ) -> ( 7a,6b ) | l*r =       0.000000191425, l =   0.00034664, r =   0.00055223
      6: ( 1b ) -> ( 6a,7b ) | l*r =       0.000000000140, l =  -0.00001105, r =  -0.00001270
      7: ( 4b ) -> ( 7a,6b ) | l*r =      -0.000000145238, l =  -0.00590098, r =   0.00002461
      8: ( 3b ) -> ( 7a,7b ) | l*r =      -0.000003902088, l =  -0.00428560, r =   0.00091051


--> Root 3 <--
  l1*r1
      1: ( ) -> ( 7a ) | l*r =       0.000333174402, l =  -0.02225758, r =  -0.01496903
  l1*r1 + hw
      1: ( ) -> ( 7a ) | l*r =       0.957040529701, l =   0.97660382, r =   0.97996804
  l2*r2
      1: ( 4a ) -> ( 6a,7a ) | l*r =       0.000130776024, l =   0.01178087, r =   0.01110071
      2: ( 4b ) -> ( 7a,6b ) | l*r =       0.000086849981, l =  -0.00937893, r =  -0.00926012
      3: ( 3b ) -> ( 7a,7b ) | l*r =       0.000063336137, l =  -0.00811836, r =  -0.00780159
      4: ( 4b ) -> ( 6a,7b ) | l*r =       0.000004420995, l =   0.00240194, r =   0.00184059
      5: ( 3b ) -> ( 6a,6b ) | l*r =       0.000002452334, l =   0.00186395, r =   0.00131566
      6: ( 2b ) -> ( 6a,7b ) | l*r =       0.000000598561, l =  -0.00073950, r =  -0.00080942
      7: ( 2b ) -> ( 7a,6b ) | l*r =       0.000000520896, l =  -0.00080966, r =  -0.00064335
      8: ( 1a ) -> ( 6a,7a ) | l*r =       0.000000000233, l =   0.00001623, r =   0.00001438
  l2*r2 + hw
      1: ( 4a ) -> ( 6a,7a ) | l*r =       0.015994874748, l =  -0.13493315, r =  -0.11853925
      2: ( 3b ) -> ( 6a,6b ) | l*r =       0.007876413509, l =  -0.08820176, r =  -0.08929996
      3: ( 4b ) -> ( 6a,7b ) | l*r =       0.007119406247, l =  -0.08403340, r =  -0.08472115
      4: ( 3b ) -> ( 7a,7b ) | l*r =       0.006337461758, l =   0.08359658, r =   0.07581006
      5: ( 2a ) -> ( 6a,7a ) | l*r =       0.001996215427, l =  -0.04638096, r =  -0.04303955
      6: ( 4b ) -> ( 7a,6b ) | l*r =       0.001721332911, l =   0.05089976, r =   0.03381810
      7: ( 2b ) -> ( 7a,6b ) | l*r =       0.001186431942, l =   0.03537931, r =   0.03353462
      8: ( 2b ) -> ( 6a,7b ) | l*r =       0.000104569813, l =  -0.01100164, r =  -0.00950493


--> Root 4 <--
  l2*r2
      1: ( 5b ) -> ( 7a,6b ) | l*r =       0.332374380921, l =  -0.57640068, r =  -0.57663773
      2: ( 5b ) -> ( 6a,7b ) | l*r =       0.332374380921, l =   0.57640068, r =   0.57663773
      3: ( 5a ) -> ( 6a,7a ) | l*r =       0.332374380921, l =  -0.57640068, r =  -0.57663773
  l2*r2 + hw
      1: ( 5b ) -> ( 7a,6b ) | l*r =       0.000958952413, l =   0.03344205, r =   0.02867505
      2: ( 5b ) -> ( 6a,7b ) | l*r =       0.000958952413, l =  -0.03344205, r =  -0.02867505
      3: ( 5a ) -> ( 6a,7a ) | l*r =       0.000958952413, l =   0.03344205, r =   0.02867505


--> Root 5 <--
  l2*r2
      1: ( 5b ) -> ( 6a,6b ) | l*r =       0.849914943668, l =  -0.92300979, r =  -0.92080815
      2: ( 5b ) -> ( 7a,7b ) | l*r =       0.144446695949, l =   0.37638720, r =   0.38377155
  l2*r2 + hw
      1: ( 5b ) -> ( 6a,6b ) | l*r =       0.005116743824, l =   0.07710453, r =   0.06636113
      2: ( 5b ) -> ( 7a,7b ) | l*r =       0.000521616559, l =  -0.02521489, r =  -0.02068685


--> Root 6 <--
  l2*r2
      1: ( 5a ) -> ( 6a,7a ) | l*r =       0.660488948434, l =  -0.81251156, r =  -0.81289791
      2: ( 5b ) -> ( 6a,7b ) | l*r =       0.214630112901, l =  -0.46317264, r =  -0.46339117
      3: ( 5b ) -> ( 7a,6b ) | l*r =       0.122096305842, l =   0.34933892, r =   0.34950674
  l2*r2 + hw
      1: ( 5a ) -> ( 6a,7a ) | l*r =       0.001844226811, l =   0.04714531, r =   0.03911793
      2: ( 5b ) -> ( 6a,7b ) | l*r =       0.000600081173, l =   0.02687511, r =   0.02232851
      3: ( 5b ) -> ( 7a,6b ) | l*r =       0.000340324839, l =  -0.02027020, r =  -0.01678942


--> Root 7 <--
  l2*r2
      1: ( 5b ) -> ( 7a,6b ) | l*r =       0.000958952413, l =   0.02867603, r =   0.03344091
      2: ( 5b ) -> ( 6a,7b ) | l*r =       0.000958952413, l =  -0.02867603, r =  -0.03344091
      3: ( 5a ) -> ( 6a,7a ) | l*r =       0.000958952413, l =   0.02867603, r =   0.03344091
  l2*r2 + hw
      1: ( 5b ) -> ( 7a,6b ) | l*r =       0.332374380921, l =   0.57665744, r =   0.57638098
      2: ( 5b ) -> ( 6a,7b ) | l*r =       0.332374380921, l =  -0.57665744, r =  -0.57638098
      3: ( 5a ) -> ( 6a,7a ) | l*r =       0.332374380921, l =   0.57665744, r =   0.57638098


--> Root 8 <--
  l2*r2
      1: ( 4b ) -> ( 6a,7b ) | l*r =       0.331137589229, l =  -0.57537356, r =  -0.57551756
      2: ( 4b ) -> ( 7a,6b ) | l*r =       0.331137585796, l =   0.57537356, r =   0.57551756
      3: ( 4a ) -> ( 6a,7a ) | l*r =       0.331137581843, l =   0.57537355, r =   0.57551756
      4: ( 2b ) -> ( 6a,7b ) | l*r =       0.001202145133, l =  -0.03440253, r =  -0.03494351
      5: ( 2b ) -> ( 7a,6b ) | l*r =       0.001202144984, l =   0.03440253, r =   0.03494351
      6: ( 2a ) -> ( 6a,7a ) | l*r =       0.001202144948, l =   0.03440253, r =   0.03494351
      7: ( 1b ) -> ( 7a,6b ) | l*r =       0.000000526081, l =  -0.00072240, r =  -0.00072824
      8: ( 1b ) -> ( 6a,7b ) | l*r =       0.000000526082, l =   0.00072240, r =   0.00072824
  l2*r2 + hw
      1: ( 4b ) -> ( 7a,6b ) | l*r =       0.000980722549, l =  -0.03309076, r =  -0.02963736
      2: ( 4b ) -> ( 6a,7b ) | l*r =       0.000980722527, l =   0.03309076, r =   0.02963736
      3: ( 4a ) -> ( 6a,7a ) | l*r =       0.000980722398, l =  -0.03309075, r =  -0.02963735
      4: ( 2b ) -> ( 7a,6b ) | l*r =       0.000012353389, l =   0.00343713, r =   0.00359409
      5: ( 2a ) -> ( 6a,7a ) | l*r =       0.000012353388, l =   0.00343713, r =   0.00359409
      6: ( 2b ) -> ( 6a,7b ) | l*r =       0.000012353402, l =  -0.00343714, r =  -0.00359410
      7: ( 1b ) -> ( 7a,6b ) | l*r =       0.000000000723, l =   0.00002962, r =   0.00002442
      8: ( 1a ) -> ( 6a,7a ) | l*r =       0.000000000723, l =   0.00002962, r =   0.00002442


--> Root 9 <--
  l2*r2
      1: ( 5b ) -> ( 6a,6b ) | l*r =       0.004123781800, l =   0.05884573, r =   0.07007784
      2: ( 5b ) -> ( 7a,7b ) | l*r =       0.001641280477, l =  -0.03882936, r =  -0.04226906
  l2*r2 + hw
      1: ( 5b ) -> ( 6a,6b ) | l*r =       0.848981589922, l =   0.92331273, r =   0.91949516
      2: ( 5b ) -> ( 7a,7b ) | l*r =       0.145253347802, l =  -0.37778376, r =  -0.38448807



    ==>  EOM-EA-QED-CCSD-21 energies:  <==    

state    total energy (Eh)   ex. energy (Eh)       |l1*r1|       |l2*r2|   |l1,1*r1,1|   |l2,1*r2,1|
    0     -74.405003679084    0.000000000000  0.9767328114  0.0232611239 -0.0000019442  0.0000080089 
    1     -74.305208247170    0.099795431914  0.0000040186  0.0001250792  0.9766143640  0.0232565382 
    2     -74.280372110698    0.124631568386  0.9573314415  0.0422175143  0.0004566558 -0.0000056116 
    3     -74.180499156960    0.224504522123  0.0003331744  0.0002889436  0.9570405297  0.0423373523 
    4     -73.984241765966    0.420761913117 -------------  0.9971231428 -------------  0.0028768572 
    5     -73.957830871056    0.447172808027 -------------  0.9943616396 -------------  0.0056383604 
    6     -73.890699500539    0.514304178544 -------------  0.9972153672 -------------  0.0027846328 
    7     -73.883729461502    0.521274217582 -------------  0.0028768572 -------------  0.9971231428 
    8     -73.868344954114    0.536658724970 -------------  0.9970207702 -------------  0.0029792298 
    9     -73.856784662894    0.548219016190 -------------  0.0057650623 -------------  0.9942349377 

  Time Elapsed:           3.246 s
  Iterations:             10
----------------------------------------
  Unpack/Pack Time:
    - Avg.  6.849 ms
    - Total 68.491 ms
  Eigen Solver Time:
    - Avg.  9.060 ms
    - Total 99.660 ms
  Sigma Build Time:
    - Avg.  317.760 ms
    - Total 3.178 s
----------------------------------------

Computing 1-RDMs and oscillator strengths...Done --> Time: 58.715 ms

  ==> EOM-EA-QED-CCSD-21 Initial State Transition Dipoles <==

state           omega (Eh)  Oscillator Strength |     <0|mu|n><n|mu|0> |   <0|mu_x|n>    <n|mu_x|0> |   <0|mu_y|n>    <n|mu_y|0> |   <0|mu_z|n>    <n|mu_z|0>
    0       0.000000000000 -------------------- |       6.725719741947 | ------------  ------------ | ------------  ------------ |  -2.59339926   -2.59339926
    1       0.099795431914       0.000038410677 |       0.000577341210 | ------------  ------------ | ------------  ------------ |   0.02089208    0.02763445
    2       0.124631568386       0.221446309323 |       2.665211296667 | ------------  ------------ |  -1.63149666   -1.63359899 | ------------  ------------
    3       0.224504522123       0.000006325418 |       0.000042262519 | ------------  ------------ |   0.00353964    0.01193976 | ------------  ------------
    4       0.420761913117 -------------------- | -------------------- | ------------  ------------ | ------------  ------------ | ------------  ------------
    5       0.447172808027       0.000642025862 |       0.002153616625 |  -0.04681567   -0.04600204 | ------------  ------------ | ------------  ------------
    6       0.514304178544 -------------------- | -------------------- | ------------  ------------ | ------------  ------------ | ------------  ------------
    7       0.521274217582 -------------------- | -------------------- | ------------  ------------ | ------------  ------------ | ------------  ------------
    8       0.536658724970 -------------------- | -------------------- | ------------  ------------ | ------------  ------------ | ------------  ------------
    9       0.548219016190       0.000004384151 |       0.000011995620 |   0.00473551    0.00253312 | ------------  ------------ | ------------  ------------



  ==> EOM-EA-QED-CCSD-21 Excited State Transition Dipoles <==

state           omega (Eh)  Oscillator Strength |     <0|mu|n><n|mu|0> |   <0|mu_x|n>    <n|mu_x|0> |   <0|mu_y|n>    <n|mu_y|0> |   <0|mu_z|n>    <n|mu_z|0>
    1       0.000000000000 -------------------- |       6.724304409280 | ------------  ------------ | ------------  ------------ |  -2.59312638   -2.59312638
    2       0.024836136472       0.000072452574 |       0.004375836030 | ------------  ------------ |  -0.06323850   -0.06919576 | ------------  ------------
    3       0.124709090209       0.221279145813 |       2.661543903191 | ------------  ------------ |  -1.63077021   -1.63207783 | ------------  ------------
    4       0.320966481203 -------------------- | -------------------- | ------------  ------------ | ------------  ------------ | ------------  ------------
    5       0.347377376113       0.000000386972 |       0.000001670974 |   0.00119226    0.00140152 | ------------  ------------ | ------------  ------------
    6       0.414508746630 -------------------- | -------------------- | ------------  ------------ | ------------  ------------ | ------------  ------------
    7       0.421478785667 -------------------- | -------------------- | ------------  ------------ | ------------  ------------ | ------------  ------------
    8       0.436863293056 -------------------- | -------------------- | ------------  ------------ | ------------  ------------ | ------------  ------------
    9       0.448423584276       0.000646656022 |       0.002163097721 |   0.04700476    0.04601869 | ------------  ------------ | ------------  ------------

  -- Excited State 2 --
state           omega (Eh)  Oscillator Strength |     <0|mu|n><n|mu|0> |   <0|mu_x|n>    <n|mu_x|0> |   <0|mu_y|n>    <n|mu_y|0> |   <0|mu_z|n>    <n|mu_z|0>
    2       0.000000000000 -------------------- |       4.459081866318 | ------------  ------------ | ------------  ------------ |  -2.11165382   -2.11165382
    3       0.099872953737       0.000056280895 |       0.000845287336 | ------------  ------------ | ------------  ------------ |   0.02572039    0.03286448
    4       0.296130344731 -------------------- | -------------------- | ------------  ------------ | ------------  ------------ | ------------  ------------
    5       0.322541239641 -------------------- | -------------------- | ------------  ------------ | ------------  ------------ | ------------  ------------
    6       0.389672610158       0.008842116694 |       0.034036713629 |  -0.18843292   -0.18063040 | ------------  ------------ | ------------  ------------
    7       0.396642649196 -------------------- | -------------------- | ------------  ------------ | ------------  ------------ | ------------  ------------
    8       0.412027156584 -------------------- | -------------------- | ------------  ------------ |  -0.00000001   -0.00000001 | ------------  ------------
    9       0.423587447804 -------------------- | -------------------- | ------------  ------------ | ------------  ------------ | ------------  ------------

  -- Excited State 3 --
state           omega (Eh)  Oscillator Strength |     <0|mu|n><n|mu|0> |   <0|mu_x|n>    <n|mu_x|0> |   <0|mu_y|n>    <n|mu_y|0> |   <0|mu_z|n>    <n|mu_z|0>
    3       0.000000000000 -------------------- |       4.470226283350 | ------------  ------------ | ------------  ------------ |  -2.11429096   -2.11429096
    4       0.196257390994 -------------------- | -------------------- | ------------  ------------ | ------------  ------------ | ------------  ------------
    5       0.222668285904 -------------------- | -------------------- | ------------  ------------ | ------------  ------------ | ------------  ------------
    6       0.289799656421       0.000013076940 |       0.000067686105 |   0.00819739    0.00825703 | ------------  ------------ | ------------  ------------
    7       0.296769695458 -------------------- | -------------------- | ------------  ------------ | ------------  ------------ | ------------  ------------
    8       0.312154202847 -------------------- | -------------------- | ------------  ------------ | ------------  ------------ | ------------  ------------
    9       0.323714494066 -------------------- | -------------------- | ------------  ------------ | ------------  ------------ | ------------  ------------

  -- Excited State 4 --
state           omega (Eh)  Oscillator Strength |     <0|mu|n><n|mu|0> |   <0|mu_x|n>    <n|mu_x|0> |   <0|mu_y|n>    <n|mu_y|0> |   <0|mu_z|n>    <n|mu_z|0>
    4       0.000000000000 -------------------- |      13.112688834621 | ------------  ------------ | ------------  ------------ |  -3.62114469   -3.62114469
    5       0.026410894910 -------------------- | -------------------- | ------------  ------------ | ------------  ------------ | ------------  ------------
    6       0.093542265427 -------------------- | -------------------- | ------------  ------------ | ------------  ------------ | ------------  ------------
    7       0.100512304464      -0.000000031275 |      -0.000000466729 | ------------  ------------ | ------------  ------------ |   0.00003962   -0.01178033
    8       0.115896811853       0.005420525872 |       0.070155413927 |  -0.26330819   -0.26643841 | ------------  ------------ | ------------  ------------
    9       0.127457103072 -------------------- | -------------------- | ------------  ------------ | ------------  ------------ | ------------  ------------

  -- Excited State 5 --
state           omega (Eh)  Oscillator Strength |     <0|mu|n><n|mu|0> |   <0|mu_x|n>    <n|mu_x|0> |   <0|mu_y|n>    <n|mu_y|0> |   <0|mu_z|n>    <n|mu_z|0>
    5       0.000000000000 -------------------- |      16.326380141511 | ------------  ------------ | ------------  ------------ |  -4.04059156   -4.04059156
    6       0.067131370517       0.000766439096 |       0.017125505339 | ------------  ------------ |   0.13108550    0.13064378 | ------------  ------------
    7       0.074101409554 -------------------- | -------------------- | ------------  ------------ | ------------  ------------ | ------------  ------------
    8       0.089485916943 -------------------- | -------------------- | ------------  ------------ | ------------  ------------ | ------------  ------------
    9       0.101046208162       0.000010065343 |       0.000149416929 | ------------  ------------ | ------------  ------------ |  -0.00725756   -0.02058777

  -- Excited State 6 --
state           omega (Eh)  Oscillator Strength |     <0|mu|n><n|mu|0> |   <0|mu_x|n>    <n|mu_x|0> |   <0|mu_y|n>    <n|mu_y|0> |   <0|mu_z|n>    <n|mu_z|0>
    6       0.000000000000 -------------------- |      13.112689752510 | ------------  ------------ | ------------  ------------ |  -3.62114481   -3.62114481
    7       0.006970039037 -------------------- | -------------------- | ------------  ------------ | ------------  ------------ | ------------  ------------
    8       0.022354546426 -------------------- | -------------------- | ------------  ------------ | ------------  ------------ | ------------  ------------
    9       0.033914837645       0.000000019159 |       0.000000847393 | ------------  ------------ |   0.00075259    0.00112597 | ------------  ------------

  -- Excited State 7 --
state           omega (Eh)  Oscillator Strength |     <0|mu|n><n|mu|0> |   <0|mu_x|n>    <n|mu_x|0> |   <0|mu_y|n>    <n|mu_y|0> |   <0|mu_z|n>    <n|mu_z|0>
    7       0.000000000000 -------------------- |      13.102795187729 | ------------  ------------ | ------------  ------------ |  -3.61977833   -3.61977833
    8       0.015384507389       0.000001414483 |       0.000137913019 |  -0.01202656   -0.01146737 | ------------  ------------ | ------------  ------------
    9       0.026944798608 -------------------- | -------------------- | ------------  ------------ | ------------  ------------ | ------------  ------------

  -- Excited State 8 --
state           omega (Eh)  Oscillator Strength |     <0|mu|n><n|mu|0> |   <0|mu_x|n>    <n|mu_x|0> |   <0|mu_y|n>    <n|mu_y|0> |   <0|mu_z|n>    <n|mu_z|0>
    8       0.000000000000 -------------------- |      12.993859663667 | ------------  ------------ |  -0.00000002   -0.00000002 |  -3.60469966   -3.60469966
    9       0.011560291220 -------------------- | -------------------- | ------------  ------------ | ------------  ------------ | ------------  ------------

  -- Excited State 9 --
state           omega (Eh)  Oscillator Strength |     <0|mu|n><n|mu|0> |   <0|mu_x|n>    <n|mu_x|0> |   <0|mu_y|n>    <n|mu_y|0> |   <0|mu_z|n>    <n|mu_z|0>
    9       0.000000000000 -------------------- |      16.292030604117 | ------------  ------------ | ------------  ------------ |  -4.03633876   -4.03633876


    Psi4 stopped on: Tuesday, 06 May 2025 03:34PM
    Psi4 wall time for execution: 0:01:03.57

*** Psi4 exiting successfully. Buy a developer a beer!
