
    -----------------------------------------------------------------------
          Psi4: An Open-Source Ab Initio Electronic Structure Package
                               Psi4 1.4a2.dev397 

                         Git: Rev {master} b3df9b2 dirty


    R. M. Parrish, L. A. Burns, D. G. A. Smith, A. C. Simmonett,
    A. E. DePrince III, E. G. Hohenstein, U. Bozkaya, A. Yu. Sokolov,
    R. Di Remigio, R. M. Richard, J. F. Gonthier, A. M. James,
    H. R. McAlexander, A. Kumar, M. Saitow, X. Wang, B. P. Pritchard,
    P. Verma, H. F. Schaefer III, K. Patkowski, R. A. King, E. F. Valeev,
    F. A. Evangelista, J. M. Turney, T. D. Crawford, and C. D. Sherrill,
    J. Chem. Theory Comput. 13(7) pp 3185--3197 (2017).
    (doi: 10.1021/acs.jctc.7b00174)


                         Additional Contributions by
    P. Kraus, H. Kruse, M. H. Lechner, M. C. Schieber, R. A. Shaw,
    A. Alenaizan, R. Galvelis, Z. L. Glick, S. Lehtola, and J. P. Misiewicz

    -----------------------------------------------------------------------


    Psi4 started on: Thursday, 16 July 2020 09:22AM

    Process ID: 90549
    Host:       illegally-used-at.fsu
    PSIDATADIR: /Users/deprince/edeprince3/psi4/install/master/share/psi4
    Memory:     500.0 MiB
    Threads:    1
    
  ==> Input File <==

--------------------------------------------------------------------------
sys.path.insert(0, '../../..')
import hilbert 
# job description
print('        1,4-phenylenedinitrene/(10,10)/cc-pVDZ')

molecule singlet {
0 1
C      0.00000000    -1.43825841     0.00000000
C      1.26321637    -0.67149862     0.00000000
C      1.26321637     0.67149862     0.00000000
C      0.00000000     1.43825841     0.00000000
C     -1.26321637     0.67149862     0.00000000
C     -1.26321637    -0.67149862     0.00000000
H      2.18678709    -1.24095300     0.00000000
H      2.18678709     1.24095300     0.00000000
H     -2.18678709     1.24095300     0.00000000
H     -2.18678709    -1.24095300     0.00000000
N      0.00000000     2.71003942     0.00000000
N      0.00000000    -2.71003942     0.00000000
}
molecule triplet {
0 3
C      0.00000000    -1.43825841     0.00000000
C      1.26321637    -0.67149862     0.00000000
C      1.26321637     0.67149862     0.00000000
C      0.00000000     1.43825841     0.00000000
C     -1.26321637     0.67149862     0.00000000
C     -1.26321637    -0.67149862     0.00000000
H      2.18678709    -1.24095300     0.00000000
H      2.18678709     1.24095300     0.00000000
H     -2.18678709     1.24095300     0.00000000
H     -2.18678709    -1.24095300     0.00000000
N      0.00000000     2.71003942     0.00000000
N      0.00000000    -2.71003942     0.00000000
}
set {
  basis cc-pvdz
  scf_type df
  d_convergence 1e-8
  maxiter 500
  reference rohf

  restricted_docc [   8,   3,   0,   0,   0,   0,   7,   4 ]
  active          [   0,   1,   1,   3,   1,   3,   0,   1 ]
}

set hilbert {

  positivity dqg
  constrain_spin true

  r_convergence  1e-4
  e_convergence  1e-4
  cg_convergence 1e-8

  mu_update_frequency 250
  orbopt_frequency 500

  maxiter 100000
  orbopt_maxiter 20

}

# singlet
# from JCTC, with r_convergence = e_convergence = 1e-5
#    * v2RDM total energy:           -338.502362198038

activate(singlet)
ref_singlet = -338.502342367694 # TEST
e_singlet = energy('v2rdm-casscf')

compare_values(e_singlet, ref_singlet, 4, "singlet") # TEST

# triplet
# from JCTC, with r_convergence = e_convergence = 1e-5
#    * v2RDM total energy:           -338.495146818081

activate(triplet)
ref_triplet = -338.495170913420 # TEST
e_triplet = energy('v2rdm-casscf')

compare_values(e_triplet, ref_triplet, 4, "triplet") # TEST

--------------------------------------------------------------------------

Scratch directory: /tmp/

*** tstart() called on illegally-used-at.fsu
*** at Thu Jul 16 09:22:26 2020

   => Loading Basis Set <=

    Name: CC-PVDZ
    Role: ORBITAL
    Keyword: BASIS
    atoms 1-6   entry C          line   138 file /Users/deprince/edeprince3/psi4/install/master/share/psi4/basis/cc-pvdz.gbs 
    atoms 7-10  entry H          line    22 file /Users/deprince/edeprince3/psi4/install/master/share/psi4/basis/cc-pvdz.gbs 
    atoms 11-12 entry N          line   168 file /Users/deprince/edeprince3/psi4/install/master/share/psi4/basis/cc-pvdz.gbs 


         ---------------------------------------------------------
                                   SCF
               by Justin Turney, Rob Parrish, Andy Simmonett
                          and Daniel G. A. Smith
                             ROHF Reference
                        1 Threads,    500 MiB Core
         ---------------------------------------------------------

  ==> Geometry <==

    Molecular point group: d2h
    Full point group: D2h

    Geometry (in Angstrom), charge = 0, multiplicity = 1:

       Center              X                  Y                   Z               Mass       
    ------------   -----------------  -----------------  -----------------  -----------------
         C            0.000000000000    -1.438258410000     0.000000000000    12.000000000000
         C            1.263216370000    -0.671498620000     0.000000000000    12.000000000000
         C            1.263216370000     0.671498620000     0.000000000000    12.000000000000
         C           -0.000000000000     1.438258410000     0.000000000000    12.000000000000
         C           -1.263216370000     0.671498620000     0.000000000000    12.000000000000
         C           -1.263216370000    -0.671498620000     0.000000000000    12.000000000000
         H            2.186787090000    -1.240953000000     0.000000000000     1.007825032230
         H            2.186787090000     1.240953000000     0.000000000000     1.007825032230
         H           -2.186787090000     1.240953000000     0.000000000000     1.007825032230
         H           -2.186787090000    -1.240953000000     0.000000000000     1.007825032230
         N           -0.000000000000     2.710039420000     0.000000000000    14.003074004430
         N            0.000000000000    -2.710039420000     0.000000000000    14.003074004430

  Running in d2h symmetry.

  Rotational constants: A =      0.17583  B =      0.05953  C =      0.04447 [cm^-1]
  Rotational constants: A =   5271.38340  B =   1784.63257  C =   1333.25697 [MHz]
  Nuclear repulsion =  301.872747225457431

  Charge       = 0
  Multiplicity = 1
  Electrons    = 54
  Nalpha       = 27
  Nbeta        = 27

  ==> Algorithm <==

  SCF Algorithm Type is DF.
  DIIS enabled.
  MOM disabled.
  Fractional occupation disabled.
  Guess Type is SAD.
  Energy threshold   = 1.00e-08
  Density threshold  = 1.00e-08
  Integral threshold = 0.00e+00

  ==> Primary Basis <==

  Basis Set: CC-PVDZ
    Blend: CC-PVDZ
    Number of shells: 60
    Number of basis function: 132
    Number of Cartesian functions: 140
    Spherical Harmonics?: true
    Max angular momentum: 2

   => Loading Basis Set <=

    Name: (CC-PVDZ AUX)
    Role: JKFIT
    Keyword: DF_BASIS_SCF
    atoms 1-6   entry C          line   121 file /Users/deprince/edeprince3/psi4/install/master/share/psi4/basis/cc-pvdz-jkfit.gbs 
    atoms 7-10  entry H          line    51 file /Users/deprince/edeprince3/psi4/install/master/share/psi4/basis/cc-pvdz-jkfit.gbs 
    atoms 11-12 entry N          line   171 file /Users/deprince/edeprince3/psi4/install/master/share/psi4/basis/cc-pvdz-jkfit.gbs 

  ==> Pre-Iterations <==

   -------------------------------------------------------
    Irrep   Nso     Nmo     Nalpha   Nbeta   Ndocc  Nsocc
   -------------------------------------------------------
     Ag        28      28       0       0       0       0
     B1g       20      20       0       0       0       0
     B2g        7       7       0       0       0       0
     B3g       11      11       0       0       0       0
     Au         7       7       0       0       0       0
     B1u       11      11       0       0       0       0
     B2u       28      28       0       0       0       0
     B3u       20      20       0       0       0       0
   -------------------------------------------------------
    Total     132     132      27      27      27       0
   -------------------------------------------------------

  ==> Integral Setup <==

  ==> DiskDFJK: Density-Fitted J/K Matrices <==

    J tasked:                  Yes
    K tasked:                  Yes
    wK tasked:                  No
    OpenMP threads:              1
    Integrals threads:           1
    Memory [MiB]:              375
    Algorithm:                Core
    Integral Cache:           SAVE
    Schwarz Cutoff:          1E-12
    Fitting Condition:       1E-10

   => Auxiliary Basis Set <=

  Basis Set: (CC-PVDZ AUX)
    Blend: CC-PVDZ-JKFIT
    Number of shells: 228
    Number of basis function: 652
    Number of Cartesian functions: 748
    Spherical Harmonics?: true
    Max angular momentum: 3

  Minimum eigenvalue in the overlap matrix is 7.0015226961E-04.
  Reciprocal condition number of the overlap matrix is 1.3223327292E-04.
    Using symmetric orthogonalization.
  SCF Guess: Superposition of Atomic Densities via on-the-fly atomic UHF.

  ==> Iterations <==

                           Total Energy        Delta E     RMS |[F,P]|

   @DF-ROHF iter SAD:  -336.97621710980496   -3.36976e+02   0.00000e+00 
   @DF-ROHF iter   1:  -337.99721082931165   -1.02099e+00   5.33503e-03 DIIS
   @DF-ROHF iter   2:  -338.07866825475168   -8.14574e-02   3.56080e-03 DIIS
   @DF-ROHF iter   3:  -338.10731928395268   -2.86510e-02   1.09263e-03 DIIS
   @DF-ROHF iter   4:  -338.11220870446510   -4.88942e-03   3.84900e-04 DIIS
   @DF-ROHF iter   5:  -338.11304450602717   -8.35802e-04   1.01969e-04 DIIS
   @DF-ROHF iter   6:  -338.11324164356012   -1.97138e-04   4.45846e-05 DIIS
   @DF-ROHF iter   7:  -338.11327483084273   -3.31873e-05   1.86957e-05 DIIS
   @DF-ROHF iter   8:  -338.11328053480014   -5.70396e-06   7.21877e-06 DIIS
   @DF-ROHF iter   9:  -338.11328098361452   -4.48814e-07   1.42752e-06 DIIS
   @DF-ROHF iter  10:  -338.11328099661529   -1.30008e-08   2.40869e-07 DIIS
   @DF-ROHF iter  11:  -338.11328099702513   -4.09841e-10   5.07447e-08 DIIS
   @DF-ROHF iter  12:  -338.11328099704343   -1.83036e-11   8.73734e-09 DIIS
  Energy and wave function converged.


  ==> Post-Iterations <==

    Orbital Energies [Eh]
    ---------------------

    Doubly Occupied:                                                      

       1Ag   -15.627231     1B2u  -15.627229     2B2u  -11.321548  
       2Ag   -11.321537     1B3u  -11.294083     3Ag   -11.294054  
       1B1g  -11.292432     3B2u  -11.292420     4Ag    -1.250383  
       4B2u   -1.222857     5Ag    -1.108500     2B3u   -1.073342  
       5B2u   -0.909804     2B1g   -0.859948     6Ag    -0.807190  
       3B3u   -0.684722     7Ag    -0.668443     6B2u   -0.656333  
       4B3u   -0.636296     1B1u   -0.567829     7B2u   -0.562819  
       8Ag    -0.548286     3B1g   -0.532266     1B3g   -0.493689  
       1B2g   -0.411266     2B1u   -0.358847     5B3u   -0.226993  

    Singly Occupied:                                                      

    

    Virtual:                                                              

       4B1g   -0.111999     2B3g    0.032298     1Au     0.121120  
       9Ag     0.177817     6B3u    0.196370     3B1u    0.197895  
       8B2u    0.223681     5B1g    0.255049    10Ag     0.333711  
       3B3g    0.335390     9B2u    0.390546    11Ag     0.404982  
       7B3u    0.424699     6B1g    0.531594    10B2u    0.536142  
      11B2u    0.615125     7B1g    0.625695    12Ag     0.629339  
       4B1u    0.633873    13Ag     0.635361     8B3u    0.663350  
       9B3u    0.676110     2B2g    0.683366     4B3g    0.734141  
      12B2u    0.761828     5B1u    0.782764     2Au     0.788844  
      14Ag     0.795054     8B1g    0.815812    13B2u    0.857402  
      10B3u    0.871985     5B3g    0.879667    15Ag     0.883527  
       9B1g    0.895704    14B2u    0.914345    16Ag     0.922910  
      11B3u    1.011651    15B2u    1.012203     6B1u    1.021726  
      10B1g    1.047487     3B2g    1.071204     6B3g    1.075588  
      17Ag     1.082220     7B1u    1.126695    11B1g    1.135982  
      12B3u    1.145322    16B2u    1.162037     4B2g    1.189895  
       3Au     1.229502    17B2u    1.251454    13B3u    1.288994  
       7B3g    1.310703     8B1u    1.333130    12B1g    1.336785  
      18Ag     1.420631    19Ag     1.438840    13B1g    1.519540  
       4Au     1.670293    14B3u    1.682037    20Ag     1.690513  
       9B1u    1.734527    18B2u    1.737952     8B3g    1.752874  
       5B2g    1.787176    21Ag     1.795674    15B3u    1.825056  
      19B2u    1.835185    20B2u    1.868717    22Ag     1.897703  
      14B1g    1.912944     6B2g    1.953050    16B3u    1.954544  
      10B1u    1.967234    23Ag     1.993712     9B3g    2.019981  
       5Au     2.027215    21B2u    2.043967    22B2u    2.091227  
      17B3u    2.105439    15B1g    2.144436     6Au     2.242452  
       7B2g    2.245436    24Ag     2.253729    10B3g    2.261658  
      16B1g    2.269403    23B2u    2.277448    18B3u    2.322494  
      17B1g    2.332967    24B2u    2.439081    25Ag     2.451791  
       7Au     2.500576    11B1u    2.662109    26Ag     2.695033  
      19B3u    2.740201    11B3g    2.761354    18B1g    2.772074  
      25B2u    2.849441    26B2u    2.929102    27Ag     2.954913  
      27B2u    3.067343    28Ag     3.103849    20B3u    3.116693  
      19B1g    3.183243    20B1g    3.269107    28B2u    3.844623  

    Final Occupation by Irrep:
             Ag   B1g   B2g   B3g    Au   B1u   B2u   B3u 
    DOCC [     8,    3,    1,    1,    0,    2,    7,    5 ]
    SOCC [     0,    0,    0,    0,    0,    0,    0,    0 ]

  @DF-ROHF Final Energy:  -338.11328099704343

   => Energetics <=

    Nuclear Repulsion Energy =            301.8727472254574309
    One-Electron Energy =               -1054.6713653928616168
    Two-Electron Energy =                 414.6853371703607536
    Total Energy =                       -338.1132809970433755

Computation Completed


Properties will be evaluated at   0.000000,   0.000000,   0.000000 [a0]

Properties computed using the SCF density matrix

  Nuclear Dipole Moment: [e a0]
     X:     0.0000      Y:     0.0000      Z:     0.0000

  Electronic Dipole Moment: [e a0]
     X:     0.0000      Y:     0.0000      Z:     0.0000

  Dipole Moment: [e a0]
     X:     0.0000      Y:     0.0000      Z:     0.0000     Total:     0.0000

  Dipole Moment: [D]
     X:     0.0000      Y:     0.0000      Z:     0.0000     Total:     0.0000


*** tstop() called on illegally-used-at.fsu at Thu Jul 16 09:22:32 2020
Module time:
	user time   =       5.59 seconds =       0.09 minutes
	system time =       0.20 seconds =       0.00 minutes
	total time  =          6 seconds =       0.10 minutes
Total time:
	user time   =       5.59 seconds =       0.09 minutes
	system time =       0.20 seconds =       0.00 minutes
	total time  =          6 seconds =       0.10 minutes

Reading options from the HILBERT block
Calling plugin hilbert.so.




        ****************************************************
        *                                                  *
        *    v2RDM-CASSCF                                  *
        *                                                  *
        *    A variational 2-RDM-driven approach to the    *
        *    active space self-consistent field method     *
        *                                                  *
        ****************************************************


        The following papers should be cited when using v2RDM-CASSCF:

        J. Fosso-Tande, D. R. Nascimento, and A. E. DePrince III,
        Mol. Phys. 114, 423-430 (2015).

            URL: http://dx.doi.org/10.1080/00268976.2015.1078008

        J. Fosso-Tande, T.-S. Nguyen, G. Gidofalvi, and
        A. E. DePrince III, J. Chem. Theory Comput. accepted (2016).

            URL: http://dx.doi.org/10.1021/acs.jctc.6b00190



  ==> Convergence parameters <==

        r_convergence:                      1.000e-04
        e_convergence:                      1.000e-04
        cg_convergence:                     1.000e-08
        maxiter:                               100000
        cg_maxiter:                             10000

  ==> Active space details <==

        Number of frozen core orbitals:             0
        Number of restricted occupied orbitals:    22
        Number of active occupied orbitals:         5
        Number of active virtual orbitals:          5
        Number of restricted virtual orbitals:    100
        Number of frozen virtual orbitals:          0

        Irrep:             Ag, B1g, B2g, B3g,  Au, B1u, B2u, B3u 
 
        frozen_docc     [   0,   0,   0,   0,   0,   0,   0,   0 ]
        restricted_docc [   8,   3,   0,   0,   0,   0,   7,   4 ]
        active          [   0,   1,   1,   3,   1,   3,   0,   1 ]
        restricted_uocc [  20,  16,   6,   8,   6,   8,  21,  15 ]
        frozen_uocc     [   0,   0,   0,   0,   0,   0,   0,   0 ]

  ==> Orbital optimization parameters <==

        1-step algorithm:                    true
        g_convergence:                  1.000e-04
        e_convergence:                  1.000e-08
        maximum iterations:                    20
        frequency:                            500
        active-active rotations:            false
        exact diagonal Hessian:              true
        number of DIIS vectors:                 0
        print iteration info:               false

  ==> Memory requirements <==

        D2:                          0.02 mb
        Q2:                          0.02 mb
        G2:                          0.07 mb

        Total number of variables:          15508
        Total number of constraints:        14355
        Total memory requirements:       44.78 mb

    ==> Transform three-electron integrals <==


        Time for integral transformation:     2.31 s

    Molecular point group: d2h
    Full point group: D2h

    Geometry (in Angstrom), charge = 0, multiplicity = 1:

       Center              X                  Y                   Z               Mass       
    ------------   -----------------  -----------------  -----------------  -----------------
         C            0.000000000000    -1.438258410000     0.000000000000    12.000000000000
         C            1.263216370000    -0.671498620000     0.000000000000    12.000000000000
         C            1.263216370000     0.671498620000     0.000000000000    12.000000000000
         C           -0.000000000000     1.438258410000     0.000000000000    12.000000000000
         C           -1.263216370000     0.671498620000     0.000000000000    12.000000000000
         C           -1.263216370000    -0.671498620000     0.000000000000    12.000000000000
         H            2.186787090000    -1.240953000000     0.000000000000     1.007825032230
         H            2.186787090000     1.240953000000     0.000000000000     1.007825032230
         H           -2.186787090000     1.240953000000     0.000000000000     1.007825032230
         H           -2.186787090000    -1.240953000000     0.000000000000     1.007825032230
         N           -0.000000000000     2.710039420000     0.000000000000    14.003074004430
         N            0.000000000000    -2.710039420000     0.000000000000    14.003074004430

  -AO BASIS SET INFORMATION:
    Name                   = CC-PVDZ
    Blend                  = CC-PVDZ
    Total number of shells = 60
    Number of primitives   = 196
    Number of AO           = 140
    Number of SO           = 132
    Maximum AM             = 2
    Spherical Harmonics    = TRUE

  -Contraction Scheme:
    Atom   Type   All Primitives // Shells:
   ------ ------ --------------------------
       1     C     17s 4p 1d // 3s 2p 1d 
       2     C     17s 4p 1d // 3s 2p 1d 
       3     C     17s 4p 1d // 3s 2p 1d 
       4     C     17s 4p 1d // 3s 2p 1d 
       5     C     17s 4p 1d // 3s 2p 1d 
       6     C     17s 4p 1d // 3s 2p 1d 
       7     H     4s 1p // 2s 1p 
       8     H     4s 1p // 2s 1p 
       9     H     4s 1p // 2s 1p 
      10     H     4s 1p // 2s 1p 
      11     N     17s 4p 1d // 3s 2p 1d 
      12     N     17s 4p 1d // 3s 2p 1d 

  ==> AO Basis Functions <==

    [ CC-PVDZ ]
    spherical
    ****
    C   1
    S   8 1.00
                      6665.00000000           0.00069200
                      1000.00000000           0.00532900
                       228.00000000           0.02707700
                        64.71000000           0.10171800
                        21.06000000           0.27474000
                         7.49500000           0.44856400
                         2.79700000           0.28507400
                         0.52150000           0.01520400
    S   8 1.00
                      6665.00000000          -0.00014600
                      1000.00000000          -0.00115400
                       228.00000000          -0.00572500
                        64.71000000          -0.02331200
                        21.06000000          -0.06395500
                         7.49500000          -0.14998100
                         2.79700000          -0.12726200
                         0.52150000           0.54452900
    S   1 1.00
                         0.15960000           1.00000000
    P   3 1.00
                         9.43900000           0.03810900
                         2.00200000           0.20948000
                         0.54560000           0.50855700
    P   1 1.00
                         0.15170000           1.00000000
    D   1 1.00
                         0.55000000           1.00000000
    ****
    C   2
    S   8 1.00
                      6665.00000000           0.00069200
                      1000.00000000           0.00532900
                       228.00000000           0.02707700
                        64.71000000           0.10171800
                        21.06000000           0.27474000
                         7.49500000           0.44856400
                         2.79700000           0.28507400
                         0.52150000           0.01520400
    S   8 1.00
                      6665.00000000          -0.00014600
                      1000.00000000          -0.00115400
                       228.00000000          -0.00572500
                        64.71000000          -0.02331200
                        21.06000000          -0.06395500
                         7.49500000          -0.14998100
                         2.79700000          -0.12726200
                         0.52150000           0.54452900
    S   1 1.00
                         0.15960000           1.00000000
    P   3 1.00
                         9.43900000           0.03810900
                         2.00200000           0.20948000
                         0.54560000           0.50855700
    P   1 1.00
                         0.15170000           1.00000000
    D   1 1.00
                         0.55000000           1.00000000
    ****
    H   7
    S   3 1.00
                        13.01000000           0.01968500
                         1.96200000           0.13797700
                         0.44460000           0.47814800
    S   1 1.00
                         0.12200000           1.00000000
    P   1 1.00
                         0.72700000           1.00000000
    ****
    N  11
    S   8 1.00
                      9046.00000000           0.00070000
                      1357.00000000           0.00538900
                       309.30000000           0.02740600
                        87.73000000           0.10320700
                        28.56000000           0.27872300
                        10.21000000           0.44854000
                         3.83800000           0.27823800
                         0.74660000           0.01544000
    S   8 1.00
                      9046.00000000          -0.00015300
                      1357.00000000          -0.00120800
                       309.30000000          -0.00599200
                        87.73000000          -0.02454400
                        28.56000000          -0.06745900
                        10.21000000          -0.15807800
                         3.83800000          -0.12183100
                         0.74660000           0.54900300
    S   1 1.00
                         0.22480000           1.00000000
    P   3 1.00
                        13.55000000           0.03991900
                         2.91700000           0.21716900
                         0.79730000           0.51031900
    P   1 1.00
                         0.21850000           1.00000000
    D   1 1.00
                         0.81700000           1.00000000
    ****


    reference energy:        -338.113280997043
    frozen core energy:      -625.183040483153
    initial 2-RDM energy:    -334.720357648434

      oiter iiter        E(p)        E(d)      E gap)      mu     eps(p)     eps(d)
          0    64 -319.125773  480.143328 7.992691e+02   1.000 2.83392e+02 2.49273e+02
          1    28 -331.456558 -1025.328493 6.938719e+02   1.000 2.69840e+01 1.16063e+02
          2    33 -338.790253 -539.384663 2.005944e+02   1.000 1.80945e+01 1.85845e+01
          3    28 -339.462727 -470.172229 1.307095e+02   1.000 1.68278e+01 6.52265e+00
          4    28 -339.679648 -434.459390 9.477974e+01   1.000 1.39567e+01 4.57515e+00
          5    28 -338.957101 -408.501088 6.954399e+01   1.000 1.09108e+01 3.06614e+00
          6    28 -338.368132 -392.702633 5.433450e+01   1.000 7.94161e+00 2.40070e+00
          7    28 -338.087203 -381.366320 4.327912e+01   1.000 6.33055e+00 1.78972e+00
          8    28 -337.808514 -370.462317 3.265380e+01   1.000 5.04524e+00 1.43622e+00
          9    33 -337.626903 -361.767696 2.414079e+01   1.000 4.16288e+00 1.25708e+00
         10    33 -337.498178 -354.984123 1.748595e+01   1.000 3.55686e+00 1.09770e+00
         11    33 -337.420066 -349.465832 1.204577e+01   1.000 3.10489e+00 1.04136e+00
         12    33 -337.352698 -345.350012 7.997314e+00   1.000 2.57216e+00 9.18718e-01
         13    30 -337.295974 -342.074837 4.778863e+00   1.000 2.08089e+00 8.67804e-01
         14    29 -337.329426 -339.778710 2.449285e+00   1.000 1.75855e+00 8.05932e-01
         15    28 -337.411522 -338.290866 8.793442e-01   1.000 1.46457e+00 8.04173e-01
         16    28 -337.475762 -337.645316 1.695542e-01   1.000 1.19626e+00 6.83756e-01
         17    28 -337.519654 -337.429725 8.992860e-02   1.000 9.92012e-01 5.16521e-01
         18    29 -337.542629 -337.273246 2.693837e-01   1.000 8.23564e-01 4.03604e-01
         19    28 -337.529859 -337.063811 4.660476e-01   1.000 4.10508e-01 4.42769e-01
         20    28 -337.537095 -337.113713 4.233817e-01   1.000 1.81761e-01 3.68234e-01
         21    24 -337.549267 -337.213579 3.356879e-01   1.000 1.47930e-01 2.20623e-01
         22    28 -337.564886 -337.280131 2.847549e-01   1.000 1.50680e-01 1.85682e-01
         23    24 -337.590153 -337.337244 2.529087e-01   1.000 1.39418e-01 1.74046e-01
         24    25 -337.614970 -337.388183 2.267869e-01   1.000 1.30327e-01 1.65790e-01
         25    25 -337.645038 -337.433834 2.112036e-01   1.000 1.15506e-01 1.55941e-01
         26    25 -337.677121 -337.473149 2.039727e-01   1.000 9.05449e-02 1.48900e-01
         27    24 -337.704952 -337.490767 2.141845e-01   1.000 7.05173e-02 1.43925e-01
         28    24 -337.725604 -337.493415 2.321890e-01   1.000 7.01854e-02 1.37802e-01
         29    23 -337.740974 -337.492758 2.482160e-01   1.000 7.63294e-02 1.31044e-01
         30    25 -337.752305 -337.498667 2.536379e-01   1.000 7.58496e-02 1.25451e-01
         31    25 -337.760198 -337.516403 2.437954e-01   1.000 6.97264e-02 1.21584e-01
         32    25 -337.766848 -337.530131 2.367174e-01   1.000 6.37789e-02 1.18148e-01
         33    26 -337.774300 -337.543043 2.312571e-01   1.000 5.86800e-02 1.14441e-01
         34    23 -337.783040 -337.555752 2.272879e-01   1.000 5.45385e-02 1.10855e-01
         35    23 -337.793450 -337.572298 2.211514e-01   1.000 5.11652e-02 1.07260e-01
         36    23 -337.805485 -337.585671 2.198133e-01   1.000 4.90381e-02 1.04617e-01
         37    24 -337.818267 -337.595136 2.231309e-01   1.000 4.83793e-02 1.02611e-01
         38    25 -337.830771 -337.602646 2.281245e-01   1.000 4.73165e-02 1.00761e-01
         39    25 -337.842941 -337.612844 2.300970e-01   1.000 4.39344e-02 9.89976e-02
         40    25 -337.854072 -337.618359 2.357122e-01   1.000 3.98972e-02 9.72713e-02
         41    25 -337.863735 -337.620777 2.429582e-01   1.000 3.71901e-02 9.52878e-02
         42    24 -337.871833 -337.627694 2.441397e-01   1.000 3.64037e-02 9.31594e-02
         43    24 -337.880681 -337.636809 2.438719e-01   1.000 3.51378e-02 9.12980e-02
         44    25 -337.888175 -337.644254 2.439213e-01   1.000 3.41997e-02 8.99056e-02
         45    25 -337.895216 -337.650689 2.445275e-01   1.000 3.31422e-02 8.87800e-02
         46    25 -337.901420 -337.654760 2.466597e-01   1.000 3.29653e-02 8.78102e-02
         47    26 -337.907458 -337.658031 2.494268e-01   1.000 3.31927e-02 8.68683e-02
         48    25 -337.913466 -337.661044 2.524225e-01   1.000 3.36725e-02 8.59154e-02
         49    25 -337.919631 -337.663220 2.564113e-01   1.000 3.42000e-02 8.49608e-02
         50    25 -337.925869 -337.665878 2.599917e-01   1.000 3.44951e-02 8.40422e-02
         51    25 -337.932292 -337.669661 2.626311e-01   1.000 3.42074e-02 8.31957e-02
         52    24 -337.938931 -337.674478 2.644525e-01   1.000 3.33454e-02 8.24228e-02
         53    24 -337.945909 -337.679802 2.661063e-01   1.000 3.20330e-02 8.16823e-02
         54    23 -337.952820 -337.686265 2.665552e-01   1.000 3.05278e-02 8.09421e-02
         55    23 -337.959827 -337.692765 2.670615e-01   1.000 2.88981e-02 8.02619e-02
         56    24 -337.966621 -337.698823 2.677979e-01   1.000 2.73835e-02 7.96388e-02
         57    25 -337.973008 -337.704422 2.685860e-01   1.000 2.61365e-02 7.90744e-02
         58    25 -337.979394 -337.709183 2.702108e-01   1.000 2.50872e-02 7.85603e-02
         59    24 -337.985318 -337.712858 2.724602e-01   1.000 2.42084e-02 7.80815e-02
         60    25 -337.991354 -337.715763 2.755913e-01   1.000 2.33374e-02 7.76191e-02
         61    25 -337.997125 -337.717875 2.792500e-01   1.000 2.23603e-02 7.71596e-02
         62    24 -338.002857 -337.719588 2.832689e-01   1.000 2.13856e-02 7.66513e-02
         63    25 -338.008223 -337.723019 2.852040e-01   1.000 2.03256e-02 7.60444e-02
         64    25 -338.013672 -337.726757 2.869151e-01   1.000 1.89327e-02 7.54879e-02
         65    25 -338.019022 -337.730468 2.885533e-01   1.000 1.75313e-02 7.49118e-02
         66    25 -338.024322 -337.736201 2.881218e-01   1.000 1.69151e-02 7.42401e-02
         67    25 -338.029608 -337.743101 2.865062e-01   1.000 1.67990e-02 7.35249e-02
         68    25 -338.034928 -337.750823 2.841054e-01   1.000 1.68041e-02 7.29153e-02
         69    26 -338.040159 -337.759242 2.809167e-01   1.000 1.68831e-02 7.23772e-02
         70    25 -338.045270 -337.767398 2.778720e-01   1.000 1.72799e-02 7.18339e-02
         71    25 -338.050068 -337.774496 2.755715e-01   1.000 1.81508e-02 7.12740e-02
         72    25 -338.054604 -337.780208 2.743954e-01   1.000 1.93044e-02 7.06855e-02
         73    25 -338.058969 -337.784312 2.746563e-01   1.000 2.04361e-02 7.00967e-02
         74    25 -338.063263 -337.787544 2.757191e-01   1.000 2.12976e-02 6.95288e-02
         75    25 -338.067554 -337.790364 2.771897e-01   1.000 2.17449e-02 6.90062e-02
         76    25 -338.071987 -337.792730 2.792568e-01   1.000 2.17894e-02 6.85449e-02
         77    25 -338.076567 -337.794717 2.818505e-01   1.000 2.15767e-02 6.81058e-02
         78    25 -338.081360 -337.797761 2.835995e-01   1.000 2.12986e-02 6.76411e-02
         79    24 -338.086134 -337.801016 2.851178e-01   1.000 2.07918e-02 6.71962e-02
         80    25 -338.090971 -337.805222 2.857491e-01   1.000 2.03189e-02 6.67627e-02
         81    25 -338.095802 -337.810282 2.855202e-01   1.000 1.99581e-02 6.63201e-02
         82    25 -338.100381 -337.815538 2.848425e-01   1.000 1.94481e-02 6.58736e-02
         83    24 -338.104676 -337.820156 2.845200e-01   1.000 1.87880e-02 6.54369e-02
         84    24 -338.108891 -337.824105 2.847852e-01   1.000 1.81498e-02 6.50128e-02
         85    24 -338.112748 -337.827347 2.854012e-01   1.000 1.74769e-02 6.45989e-02
         86    25 -338.116644 -337.830232 2.864115e-01   1.000 1.67534e-02 6.41907e-02
         87    25 -338.120365 -337.832763 2.876023e-01   1.000 1.59961e-02 6.37942e-02
         88    25 -338.123933 -337.835648 2.882844e-01   1.000 1.51095e-02 6.34116e-02
         89    25 -338.127361 -337.838987 2.883734e-01   1.000 1.44641e-02 6.30430e-02
         90    25 -338.130922 -337.842533 2.883892e-01   1.000 1.39704e-02 6.26477e-02
         91    25 -338.134341 -337.846502 2.878391e-01   1.000 1.38508e-02 6.21861e-02
         92    25 -338.137798 -337.851632 2.861659e-01   1.000 1.38692e-02 6.16333e-02
         93    26 -338.141427 -337.856718 2.847093e-01   1.000 1.36846e-02 6.10820e-02
         94    25 -338.145169 -337.862332 2.828376e-01   1.000 1.35181e-02 6.05344e-02
         95    25 -338.149062 -337.868392 2.806702e-01   1.000 1.34525e-02 6.00212e-02
         96    25 -338.152904 -337.873779 2.791245e-01   1.000 1.36093e-02 5.95845e-02
         97    24 -338.156648 -337.878553 2.780956e-01   1.000 1.39829e-02 5.92130e-02
         98    25 -338.160289 -337.882819 2.774700e-01   1.000 1.45304e-02 5.88545e-02
         99    25 -338.163629 -337.885597 2.780317e-01   1.000 1.46306e-02 5.85146e-02
        100    25 -338.166662 -337.887904 2.787584e-01   1.000 1.46348e-02 5.81752e-02
        101    25 -338.169815 -337.890054 2.797607e-01   1.000 1.46054e-02 5.78251e-02
        102    25 -338.172335 -337.891908 2.804265e-01   1.000 1.21075e-02 5.74880e-02
        103    25 -338.175019 -337.895514 2.795053e-01   1.000 1.26781e-02 5.70358e-02
        104    26 -338.177868 -337.899163 2.787053e-01   1.000 1.37161e-02 5.65809e-02
        105    25 -338.180790 -337.902640 2.781493e-01   1.000 1.47718e-02 5.61445e-02
        106    25 -338.183759 -337.906209 2.775498e-01   1.000 1.57919e-02 5.57329e-02
        107    25 -338.186750 -337.910112 2.766381e-01   1.000 1.71374e-02 5.53298e-02
        108    25 -338.189701 -337.914347 2.753537e-01   1.000 1.88948e-02 5.46912e-02
        109    26 -338.192570 -337.922744 2.698261e-01   1.000 1.96643e-02 5.40466e-02
        110    25 -338.195497 -337.930371 2.651263e-01   1.000 1.87239e-02 5.36896e-02
        111    25 -338.198481 -337.934714 2.637676e-01   1.000 1.72686e-02 5.33557e-02
        112    25 -338.201459 -337.937060 2.643984e-01   1.000 1.58033e-02 5.29855e-02
        113    25 -338.204443 -337.937968 2.664745e-01   1.000 1.43243e-02 5.26501e-02
        114    26 -338.207388 -337.937812 2.695758e-01   1.000 1.29571e-02 5.23639e-02
        115    25 -338.210327 -337.937794 2.725334e-01   1.000 1.18302e-02 5.20900e-02
        116    25 -338.213275 -337.938701 2.745736e-01   1.000 1.10190e-02 5.18118e-02
        117    25 -338.216221 -337.940599 2.756225e-01   1.000 1.04412e-02 5.15276e-02
        118    24 -338.219113 -337.943827 2.752860e-01   1.000 1.00642e-02 5.12370e-02
        119    25 -338.222048 -337.947945 2.741025e-01   1.000 9.82575e-03 5.09456e-02
        120    24 -338.224855 -337.952072 2.727832e-01   1.000 9.77858e-03 5.06644e-02
        121    25 -338.227602 -337.955877 2.717251e-01   1.000 9.95694e-03 5.03878e-02
        122    25 -338.230265 -337.959637 2.706280e-01   1.000 1.02948e-02 5.01048e-02
        123    25 -338.232840 -337.963053 2.697870e-01   1.000 1.06192e-02 4.98347e-02
        124    24 -338.235316 -337.966036 2.692805e-01   1.000 1.07908e-02 4.95869e-02
        125    25 -338.237502 -337.968622 2.688808e-01   1.000 1.06405e-02 4.93563e-02
        126    24 -338.239620 -337.971176 2.684436e-01   1.000 1.04285e-02 4.91336e-02
        127    25 -338.241417 -337.973843 2.675740e-01   1.000 8.84179e-03 4.89276e-02
        128    25 -338.243384 -337.976844 2.665399e-01   1.000 8.34411e-03 4.86941e-02
        129    25 -338.245430 -337.979064 2.663658e-01   1.000 7.94823e-03 4.84631e-02
        130    25 -338.247477 -337.980858 2.666189e-01   1.000 7.68469e-03 4.82191e-02
        131    24 -338.249560 -337.982501 2.670587e-01   1.000 7.52027e-03 4.79673e-02
        132    24 -338.251730 -337.984360 2.673699e-01   1.000 7.51823e-03 4.77096e-02
        133    25 -338.253900 -337.986339 2.675602e-01   1.000 7.64538e-03 4.74450e-02
        134    25 -338.256055 -337.988457 2.675984e-01   1.000 7.86787e-03 4.71753e-02
        135    25 -338.258209 -337.990984 2.672245e-01   1.000 8.29911e-03 4.68660e-02
        136    28 -338.260330 -337.994864 2.654665e-01   1.000 8.92803e-03 4.64906e-02
        137    25 -338.262314 -337.999276 2.630387e-01   1.000 9.55680e-03 4.61157e-02
        138    25 -338.264193 -338.004057 2.601362e-01   1.000 1.01468e-02 4.57674e-02
        139    26 -338.266006 -338.008917 2.570892e-01   1.000 1.09021e-02 4.54480e-02
        140    25 -338.267811 -338.014127 2.536846e-01   1.000 1.16360e-02 4.51449e-02
        141    25 -338.269655 -338.018898 2.507569e-01   1.000 1.21863e-02 4.48510e-02
        142    25 -338.271462 -338.022891 2.485706e-01   1.000 1.22835e-02 4.45457e-02
        143    25 -338.273319 -338.027219 2.461007e-01   1.000 1.19078e-02 4.42364e-02
        144    25 -338.275158 -338.030560 2.445988e-01   1.000 1.14287e-02 4.39313e-02
        145    25 -338.276985 -338.032927 2.440581e-01   1.000 1.11419e-02 4.36139e-02
        146    25 -338.278798 -338.034745 2.440533e-01   1.000 1.11599e-02 4.32706e-02
        147    25 -338.280616 -338.037106 2.435100e-01   1.000 1.13797e-02 4.28879e-02
        148    25 -338.282457 -338.039821 2.426361e-01   1.000 1.16756e-02 4.25093e-02
        149    25 -338.284304 -338.043181 2.411230e-01   1.000 1.19399e-02 4.21398e-02
        150    25 -338.286154 -338.046818 2.393360e-01   1.000 1.21440e-02 4.17936e-02
        151    24 -338.287961 -338.050637 2.373242e-01   1.000 1.22850e-02 4.14637e-02
        152    25 -338.289728 -338.054479 2.352492e-01   1.000 1.23850e-02 4.11409e-02
        153    25 -338.291448 -338.058050 2.333977e-01   1.000 1.24479e-02 4.08234e-02
        154    25 -338.293103 -338.061311 2.317923e-01   1.000 1.24549e-02 4.05097e-02
        155    25 -338.294693 -338.064460 2.302323e-01   1.000 1.23729e-02 4.02013e-02
        156    25 -338.296238 -338.067476 2.287621e-01   1.000 1.21663e-02 3.99006e-02
        157    23 -338.297781 -338.070363 2.274180e-01   1.000 1.18926e-02 3.95961e-02
        158    23 -338.299264 -338.073712 2.255517e-01   1.000 1.15248e-02 3.92735e-02
        159    25 -338.300728 -338.077100 2.236278e-01   1.000 1.10646e-02 3.89732e-02
        160    26 -338.302177 -338.080493 2.216842e-01   1.000 1.05245e-02 3.86967e-02
        161    23 -338.303544 -338.083748 2.197961e-01   1.000 9.97462e-03 3.84352e-02
        162    23 -338.304850 -338.086946 2.179042e-01   1.000 9.52214e-03 3.81688e-02
        163    23 -338.306171 -338.090318 2.158534e-01   1.000 9.20745e-03 3.78811e-02
        164    23 -338.307372 -338.093439 2.139329e-01   1.000 9.08694e-03 3.75820e-02
        165    24 -338.308563 -338.096545 2.120172e-01   1.000 9.14856e-03 3.72766e-02
        166    24 -338.309751 -338.099517 2.102343e-01   1.000 9.26951e-03 3.69784e-02
        167    24 -338.310901 -338.102606 2.082951e-01   1.000 9.51754e-03 3.66830e-02
        168    24 -338.312091 -338.105413 2.066775e-01   1.000 9.63257e-03 3.63993e-02
        169    24 -338.313219 -338.107774 2.054449e-01   1.000 9.57211e-03 3.61285e-02
        170    24 -338.314311 -338.110033 2.042772e-01   1.000 9.39002e-03 3.58698e-02
        171    25 -338.315527 -338.112337 2.031895e-01   1.000 9.25333e-03 3.56181e-02
        172    25 -338.316742 -338.114581 2.021611e-01   1.000 9.06948e-03 3.53759e-02
        173    25 -338.317975 -338.116900 2.010746e-01   1.000 8.86020e-03 3.51387e-02
        174    25 -338.319220 -338.119417 1.998027e-01   1.000 8.64191e-03 3.49034e-02
        175    25 -338.320468 -338.122014 1.984542e-01   1.000 8.41627e-03 3.46700e-02
        176    25 -338.321728 -338.124770 1.969583e-01   1.000 8.17837e-03 3.44403e-02
        177    25 -338.322973 -338.127525 1.954476e-01   1.000 7.93036e-03 3.42178e-02
        178    25 -338.324219 -338.130214 1.940057e-01   1.000 7.67419e-03 3.40030e-02
        179    23 -338.325448 -338.132756 1.926925e-01   1.000 7.41852e-03 3.37954e-02
        180    23 -338.326653 -338.135127 1.915264e-01   1.000 7.17555e-03 3.35947e-02
        181    25 -338.327860 -338.137316 1.905438e-01   1.000 6.95749e-03 3.33986e-02
        182    25 -338.329022 -338.139310 1.897116e-01   1.000 6.77437e-03 3.32063e-02
        183    24 -338.330156 -338.141120 1.890359e-01   1.000 6.62286e-03 3.30186e-02
        184    24 -338.331289 -338.142763 1.885258e-01   1.000 6.50228e-03 3.28347e-02
        185    25 -338.332361 -338.144189 1.881712e-01   1.000 6.40002e-03 3.26551e-02
        186    26 -338.333418 -338.145473 1.879455e-01   1.000 6.30784e-03 3.24798e-02
        187    24 -338.334464 -338.146665 1.877988e-01   1.000 6.21431e-03 3.23089e-02
        188    25 -338.335476 -338.147818 1.876578e-01   1.000 6.10729e-03 3.21425e-02
        189    25 -338.336466 -338.148982 1.874844e-01   1.000 5.98286e-03 3.19803e-02
        190    25 -338.337452 -338.150194 1.872576e-01   1.000 5.84468e-03 3.18217e-02
        191    25 -338.338417 -338.151478 1.869393e-01   1.000 5.69547e-03 3.16663e-02
        192    23 -338.339365 -338.152838 1.865271e-01   1.000 5.54398e-03 3.15137e-02
        193    23 -338.340325 -338.154272 1.860536e-01   1.000 5.40010e-03 3.13634e-02
        194    23 -338.341266 -338.155760 1.855062e-01   1.000 5.26780e-03 3.12150e-02
        195    23 -338.342203 -338.157294 1.849084e-01   1.000 5.15272e-03 3.10684e-02
        196    23 -338.343129 -338.158846 1.842825e-01   1.000 5.05585e-03 3.09232e-02
        197    25 -338.344061 -338.160387 1.836737e-01   1.000 4.97744e-03 3.07794e-02
        198    24 -338.345006 -338.161914 1.830917e-01   1.000 4.91607e-03 3.06367e-02
        199    24 -338.345913 -338.163409 1.825043e-01   1.000 4.87461e-03 3.04948e-02
        200    25 -338.346828 -338.164868 1.819608e-01   1.000 4.84387e-03 3.03537e-02
        201    25 -338.347735 -338.166370 1.813651e-01   1.000 4.82036e-03 3.02130e-02
        202    24 -338.348627 -338.167868 1.807588e-01   1.000 4.80507e-03 3.00726e-02
        203    25 -338.349547 -338.169307 1.802395e-01   1.000 4.80030e-03 2.99325e-02
        204    24 -338.350449 -338.170689 1.797602e-01   1.000 4.80990e-03 2.97926e-02
        205    25 -338.351345 -338.172033 1.793113e-01   1.000 4.83211e-03 2.96527e-02
        206    24 -338.352255 -338.173445 1.788107e-01   1.000 4.86973e-03 2.95126e-02
        207    25 -338.353132 -338.174827 1.783050e-01   1.000 4.91766e-03 2.93723e-02
        208    25 -338.354012 -338.176216 1.777954e-01   1.000 4.97778e-03 2.92314e-02
        209    25 -338.354881 -338.177624 1.772576e-01   1.000 5.04628e-03 2.90897e-02
        210    25 -338.355754 -338.179060 1.766939e-01   1.000 5.12389e-03 2.89471e-02
        211    25 -338.356615 -338.180537 1.760780e-01   1.000 5.20511e-03 2.88034e-02
        212    25 -338.357465 -338.182076 1.753891e-01   1.000 5.28812e-03 2.86585e-02
        213    25 -338.358299 -338.183688 1.746114e-01   1.000 5.37035e-03 2.85121e-02
        214    25 -338.359129 -338.185365 1.737630e-01   1.000 5.45350e-03 2.83641e-02
        215    25 -338.359943 -338.187178 1.727654e-01   1.000 5.53744e-03 2.82145e-02
        216    25 -338.360758 -338.189140 1.716181e-01   1.000 5.63126e-03 2.80637e-02
        217    25 -338.361564 -338.191061 1.705034e-01   1.000 5.71995e-03 2.79118e-02
        218    25 -338.362374 -338.193088 1.692860e-01   1.000 5.79638e-03 2.77603e-02
        219    25 -338.363159 -338.195106 1.680534e-01   1.000 5.84686e-03 2.76127e-02
        220    25 -338.363946 -338.197040 1.669056e-01   1.000 5.86471e-03 2.74702e-02
        221    25 -338.364721 -338.198866 1.658549e-01   1.000 5.85051e-03 2.73317e-02
        222    25 -338.365473 -338.200594 1.648787e-01   1.000 5.80294e-03 2.71955e-02
        223    25 -338.366216 -338.202261 1.639545e-01   1.000 5.74930e-03 2.70541e-02
        224    25 -338.366951 -338.204143 1.628074e-01   1.000 5.71951e-03 2.69037e-02
        225    25 -338.367661 -338.206141 1.615201e-01   1.000 5.67314e-03 2.67530e-02
        226    26 -338.368373 -338.208225 1.601472e-01   1.000 5.59431e-03 2.66110e-02
        227    25 -338.369092 -338.210305 1.587872e-01   1.000 5.48604e-03 2.64783e-02
        228    25 -338.369810 -338.212301 1.575085e-01   1.000 5.36097e-03 2.63520e-02
        229    25 -338.370514 -338.214171 1.563422e-01   1.000 5.23302e-03 2.62289e-02
        230    25 -338.371207 -338.215889 1.553175e-01   1.000 5.11545e-03 2.61068e-02
        231    25 -338.371889 -338.217447 1.544423e-01   1.000 5.01290e-03 2.59850e-02
        232    23 -338.372551 -338.218847 1.537044e-01   1.000 4.91788e-03 2.58640e-02
        233    24 -338.373189 -338.220127 1.530620e-01   1.000 4.80579e-03 2.57451e-02
        234    24 -338.373828 -338.221366 1.524625e-01   1.000 4.70641e-03 2.56287e-02
        235    24 -338.374445 -338.222517 1.519284e-01   1.000 4.60006e-03 2.55153e-02
        236    25 -338.375079 -338.223614 1.514653e-01   1.000 4.49933e-03 2.54046e-02
        237    25 -338.375683 -338.224664 1.510191e-01   1.000 4.34809e-03 2.52961e-02
        238    25 -338.376287 -338.225748 1.505392e-01   1.000 4.22331e-03 2.51892e-02
        239    25 -338.376888 -338.226850 1.500382e-01   1.000 4.11988e-03 2.50836e-02
        240    25 -338.377485 -338.227971 1.495137e-01   1.000 4.02557e-03 2.49789e-02
        241    25 -338.378069 -338.229119 1.489493e-01   1.000 3.93928e-03 2.48750e-02
        242    25 -338.378629 -338.230291 1.483374e-01   1.000 3.83947e-03 2.47715e-02
        243    25 -338.379182 -338.231574 1.476083e-01   1.000 3.78127e-03 2.46679e-02
        244    23 -338.379731 -338.232928 1.468030e-01   1.000 3.74484e-03 2.45647e-02
        245    24 -338.380281 -338.234268 1.460121e-01   1.000 3.71878e-03 2.44627e-02
        246    25 -338.380838 -338.235549 1.452889e-01   1.000 3.69690e-03 2.43611e-02
        247    25 -338.381395 -338.236645 1.447502e-01   1.000 3.67229e-03 2.42605e-02
        248    24 -338.381947 -338.237605 1.443421e-01   1.000 3.64462e-03 2.41605e-02
        249    24 -338.382512 -338.238469 1.440432e-01   1.000 3.61249e-03 2.40612e-02
        250    24 -338.383030 -338.239276 1.437546e-01   0.150 3.58922e-03 2.39626e-02
        251    10 -338.386786 -338.239367 1.474196e-01   0.150 1.49619e-02 2.37608e-02
        252    11 -338.389979 -338.239623 1.503568e-01   0.150 2.23833e-02 2.34409e-02
        253    16 -338.393278 -338.241387 1.518915e-01   0.150 2.82112e-02 2.31236e-02
        254    12 -338.396693 -338.243964 1.527293e-01   0.150 3.41050e-02 2.27914e-02
        255    17 -338.399677 -338.247736 1.519407e-01   0.150 4.04635e-02 2.24334e-02
        256    18 -338.402820 -338.252191 1.506292e-01   0.150 4.70021e-02 2.20371e-02
        257    18 -338.406322 -338.257883 1.484392e-01   0.150 5.16263e-02 2.16162e-02
        258    18 -338.409952 -338.263827 1.461256e-01   0.150 5.49497e-02 2.11776e-02
        259    18 -338.413656 -338.269675 1.439809e-01   0.150 5.79255e-02 2.07082e-02
        260    18 -338.417219 -338.275475 1.417444e-01   0.150 6.09993e-02 2.02085e-02
        261    20 -338.420633 -338.281424 1.392094e-01   0.150 6.42666e-02 1.96754e-02
        262    23 -338.424004 -338.287608 1.363958e-01   0.150 6.76662e-02 1.90974e-02
        263    23 -338.427333 -338.294134 1.331991e-01   0.150 7.10303e-02 1.84558e-02
        264    23 -338.430537 -338.301286 1.292517e-01   0.150 7.44676e-02 1.77385e-02
        265    23 -338.433586 -338.309239 1.243479e-01   0.150 7.74649e-02 1.69405e-02
        266    23 -338.436365 -338.317937 1.184280e-01   0.150 7.98589e-02 1.60814e-02
        267    23 -338.437944 -338.327487 1.104570e-01   0.150 8.13870e-02 1.51602e-02
        268    23 -338.439699 -338.339084 1.006148e-01   0.150 8.04985e-02 1.43191e-02
        269    23 -338.441192 -338.350257 9.093460e-02   0.150 7.78829e-02 1.36134e-02
        270    23 -338.443039 -338.360656 8.238352e-02   0.150 7.49978e-02 1.29532e-02
        271    23 -338.443836 -338.369677 7.415900e-02   0.150 7.25392e-02 1.22819e-02
        272    23 -338.444725 -338.378427 6.629827e-02   0.150 7.08717e-02 1.16416e-02
        273    23 -338.445799 -338.385915 5.988415e-02   0.150 6.97110e-02 1.10940e-02
        274    25 -338.446460 -338.391995 5.446485e-02   0.150 6.85520e-02 1.05964e-02
        275    25 -338.446845 -338.396893 4.995175e-02   0.150 6.71002e-02 1.01289e-02
        276    25 -338.446418 -338.401108 4.530979e-02   0.150 6.44568e-02 9.69304e-03
        277    25 -338.445608 -338.404577 4.103147e-02   0.150 6.14919e-02 9.29975e-03
        278    26 -338.444865 -338.407502 3.736345e-02   0.150 5.93162e-02 8.92971e-03
        279    24 -338.443724 -338.409703 3.402137e-02   0.150 5.63850e-02 8.59160e-03
        280    26 -338.442685 -338.411886 3.079899e-02   0.150 5.41538e-02 8.27863e-03
        281    25 -338.441941 -338.413410 2.853100e-02   0.150 5.23588e-02 7.97134e-03
        282    25 -338.441110 -338.414289 2.682096e-02   0.150 5.02427e-02 7.66304e-03
        283    25 -338.440048 -338.414974 2.507397e-02   0.150 4.74655e-02 7.35993e-03
        284    25 -338.439380 -338.415601 2.377839e-02   0.150 4.55771e-02 7.05278e-03
        285    25 -338.438751 -338.415942 2.280932e-02   0.150 4.37598e-02 6.76728e-03
        286    25 -338.438296 -338.416115 2.218105e-02   0.150 4.25379e-02 6.49946e-03
        287    25 -338.437899 -338.416124 2.177497e-02   0.150 4.15336e-02 6.25046e-03
        288    25 -338.437577 -338.416061 2.151534e-02   0.150 4.07317e-02 6.01877e-03
        289    25 -338.437294 -338.416026 2.126816e-02   0.150 4.01139e-02 5.80357e-03
        290    25 -338.437104 -338.416152 2.095136e-02   0.150 3.97094e-02 5.59856e-03
        291    25 -338.436939 -338.416308 2.063160e-02   0.150 3.93793e-02 5.40673e-03
        292    25 -338.436696 -338.416738 1.995832e-02   0.150 3.86146e-02 5.21716e-03
        293    25 -338.436441 -338.417180 1.926156e-02   0.150 3.75329e-02 5.03306e-03
        294    25 -338.436422 -338.417742 1.868058e-02   0.150 3.72689e-02 4.85165e-03
        295    25 -338.436398 -338.418374 1.802403e-02   0.150 3.70797e-02 4.66284e-03
        296    25 -338.436432 -338.418931 1.750123e-02   0.150 3.69215e-02 4.49175e-03
        297    25 -338.436511 -338.419559 1.695240e-02   0.150 3.66301e-02 4.33233e-03
        298    24 -338.436530 -338.420011 1.651941e-02   0.150 3.61200e-02 4.19443e-03
        299    24 -338.436659 -338.420456 1.620266e-02   0.150 3.46865e-02 4.04622e-03
        300    24 -338.436054 -338.420795 1.525953e-02   0.150 3.09570e-02 3.94170e-03
        301    24 -338.436268 -338.421402 1.486628e-02   0.150 3.05959e-02 3.80343e-03
        302    25 -338.436366 -338.421872 1.449423e-02   0.150 3.03234e-02 3.67881e-03
        303    25 -338.436501 -338.422182 1.431948e-02   0.150 3.00262e-02 3.55478e-03
        304    24 -338.436357 -338.422299 1.405785e-02   0.150 2.89613e-02 3.43655e-03
        305    23 -338.436276 -338.422407 1.386948e-02   0.150 2.83603e-02 3.31875e-03
        306    24 -338.436191 -338.422562 1.362913e-02   0.150 2.77000e-02 3.19518e-03
        307    25 -338.436119 -338.422653 1.346623e-02   0.150 2.69515e-02 3.07844e-03
        308    25 -338.436039 -338.422777 1.326225e-02   0.150 2.61886e-02 2.96295e-03
        309    23 -338.435920 -338.422951 1.296914e-02   0.150 2.54380e-02 2.84842e-03
        310    23 -338.435772 -338.423187 1.258461e-02   0.150 2.47405e-02 2.73536e-03
        311    25 -338.435689 -338.423493 1.219680e-02   0.150 2.41474e-02 2.62467e-03
        312    24 -338.435516 -338.423855 1.166157e-02   0.150 2.34838e-02 2.51775e-03
        313    25 -338.435365 -338.424288 1.107659e-02   0.150 2.30023e-02 2.41416e-03
        314    24 -338.435323 -338.424749 1.057438e-02   0.150 2.26156e-02 2.31521e-03
        315    25 -338.435238 -338.425240 9.998195e-03   0.150 2.22456e-02 2.22264e-03
        316    24 -338.435173 -338.425848 9.324895e-03   0.150 2.18922e-02 2.13565e-03
        317    25 -338.435127 -338.426480 8.647164e-03   0.150 2.14903e-02 2.04905e-03
        318    25 -338.435087 -338.427041 8.046492e-03   0.150 2.11256e-02 1.96941e-03
        319    26 -338.435009 -338.427587 7.421559e-03   0.150 2.07766e-02 1.89369e-03
        320    25 -338.434931 -338.428135 6.795845e-03   0.150 2.04402e-02 1.82112e-03
        321    25 -338.434874 -338.428608 6.265677e-03   0.150 2.01123e-02 1.75306e-03
        322    24 -338.434815 -338.428995 5.820262e-03   0.150 1.97912e-02 1.68839e-03
        323    25 -338.434714 -338.429307 5.406500e-03   0.150 1.94862e-02 1.62689e-03
        324    25 -338.434611 -338.429562 5.048151e-03   0.150 1.91750e-02 1.56852e-03
        325    25 -338.434474 -338.429775 4.699068e-03   0.150 1.88530e-02 1.51313e-03
        326    24 -338.434341 -338.429959 4.382729e-03   0.150 1.85273e-02 1.46014e-03
        327    25 -338.434211 -338.430129 4.082017e-03   0.150 1.81914e-02 1.40900e-03
        328    24 -338.434092 -338.430286 3.806276e-03   0.150 1.77595e-02 1.36723e-03
        329    25 -338.433967 -338.430499 3.467924e-03   0.150 1.71992e-02 1.32223e-03
        330    24 -338.433869 -338.430692 3.176914e-03   0.150 1.67803e-02 1.27396e-03
        331    25 -338.433812 -338.430820 2.991971e-03   0.150 1.64922e-02 1.23148e-03
        332    24 -338.433755 -338.430936 2.818153e-03   0.150 1.62345e-02 1.19134e-03
        333    25 -338.433694 -338.431047 2.646647e-03   0.150 1.60075e-02 1.15223e-03
        334    24 -338.433653 -338.431143 2.509870e-03   0.150 1.58065e-02 1.11419e-03
        335    25 -338.433610 -338.431220 2.390462e-03   0.150 1.56171e-02 1.07728e-03
        336    24 -338.433569 -338.431282 2.286581e-03   0.150 1.54335e-02 1.04152e-03
        337    26 -338.433524 -338.431337 2.187569e-03   0.150 1.52514e-02 1.00692e-03
        338    26 -338.433474 -338.431390 2.084714e-03   0.150 1.50705e-02 9.73564e-04
        339    25 -338.433418 -338.431445 1.973017e-03   0.150 1.48897e-02 9.41508e-04
        340    25 -338.433347 -338.431502 1.845491e-03   0.150 1.47171e-02 9.10822e-04
        341    25 -338.433296 -338.431564 1.731792e-03   0.150 1.45186e-02 8.81558e-04
        342    24 -338.433210 -338.431628 1.582129e-03   0.150 1.43078e-02 8.53829e-04
        343    24 -338.433136 -338.431700 1.435343e-03   0.150 1.41287e-02 8.27157e-04
        344    24 -338.433074 -338.431767 1.306851e-03   0.150 1.39395e-02 8.02043e-04
        345    25 -338.432956 -338.431832 1.124051e-03   0.150 1.36838e-02 7.79445e-04
        346    24 -338.432904 -338.431915 9.883890e-04   0.150 1.35029e-02 7.55922e-04
        347    25 -338.432847 -338.431977 8.705711e-04   0.150 1.33263e-02 7.34338e-04
        348    24 -338.432804 -338.432032 7.721248e-04   0.150 1.31569e-02 7.13577e-04
        349    25 -338.432755 -338.432082 6.724739e-04   0.150 1.29878e-02 6.93491e-04
        350    25 -338.432713 -338.432146 5.670869e-04   0.150 1.28238e-02 6.74049e-04
        351    25 -338.432682 -338.432204 4.786253e-04   0.150 1.26605e-02 6.55627e-04
        352    25 -338.432666 -338.432256 4.103463e-04   0.150 1.24953e-02 6.37801e-04
        353    25 -338.432648 -338.432297 3.508488e-04   0.150 1.23289e-02 6.20584e-04
        354    25 -338.432645 -338.432322 3.234238e-04   0.150 1.21595e-02 6.06068e-04
        355    25 -338.432642 -338.432362 2.804493e-04   0.150 1.20008e-02 5.89009e-04
        356    26 -338.432639 -338.432387 2.514230e-04   0.150 1.18468e-02 5.73874e-04
        357    26 -338.432649 -338.432408 2.406740e-04   0.150 1.17013e-02 5.59434e-04
        358    25 -338.432643 -338.432429 2.135418e-04   0.150 1.15624e-02 5.45443e-04
        359    26 -338.432639 -338.432450 1.880591e-04   0.150 1.14310e-02 5.31831e-04
        360    25 -338.432662 -338.432472 1.899726e-04   0.150 1.13071e-02 5.18614e-04
        361    25 -338.432673 -338.432492 1.810095e-04   0.150 1.11889e-02 5.05827e-04
        362    25 -338.432688 -338.432513 1.749105e-04   0.150 1.10761e-02 4.93526e-04
        363    25 -338.432699 -338.432535 1.641982e-04   0.150 1.09684e-02 4.81682e-04
        364    25 -338.432715 -338.432556 1.588867e-04   0.150 1.08653e-02 4.70351e-04
        365    28 -338.432742 -338.432569 1.722271e-04   0.150 1.07633e-02 4.59670e-04
        366    23 -338.432744 -338.432611 1.328523e-04   0.150 1.06657e-02 4.50213e-04
        367    25 -338.432748 -338.432649 9.932934e-05   0.150 1.05746e-02 4.40038e-04
        368    28 -338.432765 -338.432674 9.101588e-05   0.150 1.04840e-02 4.30989e-04
        369    25 -338.432754 -338.432717 3.665420e-05   0.150 1.03953e-02 4.22284e-04
        370    26 -338.432750 -338.432741 8.353045e-06   0.150 1.03091e-02 4.13893e-04
        371    25 -338.432753 -338.432767 1.397938e-05   0.150 1.02223e-02 4.05802e-04
        372    28 -338.432760 -338.432784 2.416749e-05   0.150 1.01328e-02 3.97976e-04
        373    28 -338.432752 -338.432812 5.983760e-05   0.150 1.00440e-02 3.90320e-04
        374    25 -338.432733 -338.432839 1.058215e-04   0.150 9.95509e-03 3.82912e-04
        375    28 -338.432739 -338.432846 1.067098e-04   0.150 9.86627e-03 3.75704e-04
        376    28 -338.432733 -338.432867 1.344142e-04   0.150 9.77318e-03 3.68858e-04
        377    28 -338.432729 -338.432883 1.535956e-04   0.150 9.67344e-03 3.62456e-04
        378    28 -338.432728 -338.432903 1.756094e-04   0.150 9.56713e-03 3.59381e-04
        379    28 -338.432729 -338.432945 2.159732e-04   0.150 9.46788e-03 3.49968e-04
        380    28 -338.432734 -338.432955 2.200973e-04   0.150 9.37251e-03 3.44030e-04
        381    28 -338.432737 -338.432954 2.164236e-04   0.150 9.28290e-03 3.38074e-04
        382    28 -338.432739 -338.432945 2.067191e-04   0.150 9.19712e-03 3.32149e-04
        383    28 -338.432739 -338.432932 1.928442e-04   0.150 9.11427e-03 3.26286e-04
        384    28 -338.432737 -338.432917 1.802614e-04   0.150 9.03632e-03 3.20502e-04
        385    28 -338.432736 -338.432901 1.654402e-04   0.150 8.96077e-03 3.14826e-04
        386    28 -338.432736 -338.432886 1.496470e-04   0.150 8.88789e-03 3.09299e-04
        387    28 -338.432732 -338.432872 1.394790e-04   0.150 8.82104e-03 3.03967e-04
        388    28 -338.432734 -338.432858 1.231827e-04   0.150 8.75352e-03 2.98866e-04
        389    28 -338.432732 -338.432845 1.127344e-04   0.150 8.69137e-03 2.94013e-04
        390    28 -338.432733 -338.432832 9.910565e-05   0.150 8.62942e-03 2.89409e-04
        391    28 -338.432735 -338.432820 8.531384e-05   0.150 8.56884e-03 2.85044e-04
        392    28 -338.432736 -338.432808 7.217315e-05   0.150 8.50980e-03 2.80902e-04
        393    28 -338.432739 -338.432797 5.854594e-05   0.150 8.45148e-03 2.76966e-04
        394    28 -338.432737 -338.432787 5.056203e-05   0.150 8.39715e-03 2.73219e-04
        395    28 -338.432737 -338.432778 4.042733e-05   0.150 8.34262e-03 2.69643e-04
        396    28 -338.432727 -338.432768 4.148809e-05   0.150 8.28128e-03 2.65115e-04
        397    28 -338.432725 -338.432786 6.081962e-05   0.150 8.22992e-03 2.60413e-04
        398    28 -338.432732 -338.432797 6.501465e-05   0.150 8.18264e-03 2.56539e-04
        399    28 -338.432740 -338.432797 5.725113e-05   0.150 8.13689e-03 2.52782e-04
        400    28 -338.432749 -338.432789 4.058944e-05   0.150 8.08864e-03 2.49247e-04
        401    28 -338.432752 -338.432778 2.597788e-05   0.150 8.04056e-03 2.46004e-04
        402    28 -338.432752 -338.432765 1.261151e-05   0.150 7.99187e-03 2.42992e-04
        403    28 -338.432754 -338.432751 2.809702e-06   0.150 7.94138e-03 2.40154e-04
        404    28 -338.432754 -338.432738 1.591769e-05   0.150 7.89197e-03 2.37451e-04
        405    28 -338.432754 -338.432726 2.798456e-05   0.150 7.84321e-03 2.34858e-04
        406    28 -338.432752 -338.432713 3.871168e-05   0.150 7.79515e-03 2.32364e-04
        407    28 -338.432750 -338.432701 4.907158e-05   0.150 7.74704e-03 2.29966e-04
        408    28 -338.432747 -338.432690 5.713444e-05   0.150 7.69973e-03 2.27661e-04
        409    28 -338.432746 -338.432679 6.675835e-05   0.150 7.65100e-03 2.25442e-04
        410    28 -338.432743 -338.432670 7.324404e-05   0.150 7.60329e-03 2.23301e-04
        411    28 -338.432742 -338.432663 7.986464e-05   0.150 7.55485e-03 2.21227e-04
        412    28 -338.432742 -338.432656 8.578440e-05   0.150 7.50611e-03 2.19207e-04
        413    28 -338.432741 -338.432652 8.888752e-05   0.150 7.45825e-03 2.17234e-04
        414    28 -338.432744 -338.432650 9.386873e-05   0.150 7.40883e-03 2.15303e-04
        415    28 -338.432743 -338.432649 9.426820e-05   0.150 7.36117e-03 2.13429e-04
        416    28 -338.432744 -338.432652 9.279546e-05   0.150 7.31338e-03 2.11637e-04
        417    28 -338.432748 -338.432658 9.047160e-05   0.150 7.26597e-03 2.09828e-04
        418    28 -338.432752 -338.432662 8.989514e-05   0.150 7.21946e-03 2.08061e-04
        419    28 -338.432754 -338.432666 8.847752e-05   0.150 7.17411e-03 2.06328e-04
        420    28 -338.432757 -338.432670 8.690645e-05   0.150 7.12932e-03 2.04642e-04
        421    28 -338.432760 -338.432673 8.627615e-05   0.150 7.08423e-03 2.03004e-04
        422    28 -338.432761 -338.432677 8.383239e-05   0.150 7.04013e-03 2.01410e-04
        423    28 -338.432763 -338.432680 8.280705e-05   0.150 6.99523e-03 1.99856e-04
        424    28 -338.432765 -338.432684 8.100376e-05   0.150 6.95077e-03 1.98338e-04
        425    28 -338.432764 -338.432687 7.698158e-05   0.150 6.90775e-03 1.96855e-04
        426    28 -338.432764 -338.432690 7.438860e-05   0.150 6.86442e-03 1.95405e-04
        427    28 -338.432762 -338.432692 7.038577e-05   0.150 6.82244e-03 1.93990e-04
        428    28 -338.432763 -338.432693 7.052923e-05   0.150 6.77894e-03 1.92607e-04
        429    28 -338.432764 -338.432693 7.155043e-05   0.150 6.73559e-03 1.91256e-04
        430    28 -338.432760 -338.432692 6.810716e-05   0.150 6.69537e-03 1.89938e-04
        431    28 -338.432762 -338.432691 7.115097e-05   0.150 6.65239e-03 1.88650e-04
        432    28 -338.432760 -338.432688 7.145055e-05   0.150 6.61141e-03 1.87392e-04
        433    28 -338.432758 -338.432686 7.291012e-05   0.150 6.57039e-03 1.86163e-04
        434    28 -338.432756 -338.432682 7.428707e-05   0.150 6.52990e-03 1.84960e-04
        435    28 -338.432756 -338.432678 7.834716e-05   0.150 6.48842e-03 1.83784e-04
        436    28 -338.432753 -338.432673 7.988298e-05   0.150 6.44869e-03 1.82631e-04
        437    28 -338.432751 -338.432668 8.316762e-05   0.150 6.40845e-03 1.81501e-04
        438    28 -338.432749 -338.432663 8.626552e-05   0.150 6.36869e-03 1.80392e-04
        439    28 -338.432747 -338.432657 8.979986e-05   0.150 6.32906e-03 1.79302e-04
        440    28 -338.432746 -338.432651 9.453640e-05   0.150 6.28911e-03 1.78229e-04
        441    28 -338.432747 -338.432645 1.025144e-04   0.150 6.24765e-03 1.77171e-04
        442    28 -338.432747 -338.432639 1.080863e-04   0.150 6.20765e-03 1.76129e-04
        443    28 -338.432746 -338.432632 1.137633e-04   0.150 6.16783e-03 1.75099e-04
        444    28 -338.432746 -338.432626 1.198299e-04   0.150 6.12801e-03 1.74081e-04
        445    28 -338.432746 -338.432620 1.259304e-04   0.150 6.08832e-03 1.73075e-04
        446    28 -338.432746 -338.432614 1.325602e-04   0.150 6.04846e-03 1.72079e-04
        447    28 -338.432745 -338.432608 1.373575e-04   0.150 6.00964e-03 1.71094e-04
        448    28 -338.432747 -338.432602 1.448864e-04   0.150 5.96946e-03 1.70120e-04
        449    28 -338.432749 -338.432597 1.519407e-04   0.150 5.92950e-03 1.69156e-04
        450    28 -338.432750 -338.432592 1.578471e-04   0.150 5.89014e-03 1.68202e-04
        451    28 -338.432752 -338.432587 1.651296e-04   0.150 5.85007e-03 1.67259e-04
        452    28 -338.432751 -338.432583 1.684636e-04   0.150 5.81207e-03 1.66325e-04
        453    28 -338.432753 -338.432579 1.747701e-04   0.150 5.77257e-03 1.65402e-04
        454    28 -338.432754 -338.432575 1.789702e-04   0.150 5.73414e-03 1.64490e-04
        455    28 -338.432756 -338.432572 1.839964e-04   0.150 5.69530e-03 1.63588e-04
        456    28 -338.432757 -338.432569 1.880891e-04   0.150 5.65693e-03 1.62696e-04
        457    28 -338.432759 -338.432566 1.927813e-04   0.150 5.61828e-03 1.61814e-04
        458    28 -338.432760 -338.432563 1.966972e-04   0.150 5.58006e-03 1.60942e-04
        459    28 -338.432760 -338.432561 1.989376e-04   0.150 5.54276e-03 1.60080e-04
        460    28 -338.432761 -338.432559 2.013021e-04   0.150 5.50552e-03 1.59228e-04
        461    28 -338.432763 -338.432557 2.061150e-04   0.150 5.46709e-03 1.58385e-04
        462    28 -338.432763 -338.432556 2.078463e-04   0.150 5.43029e-03 1.57553e-04
        463    28 -338.432765 -338.432554 2.110462e-04   0.150 5.39290e-03 1.56729e-04
        464    28 -338.432764 -338.432552 2.121131e-04   0.150 5.35672e-03 1.55915e-04
        465    28 -338.432765 -338.432551 2.140676e-04   0.150 5.32029e-03 1.55110e-04
        466    28 -338.432766 -338.432549 2.170355e-04   0.150 5.28350e-03 1.54315e-04
        467    28 -338.432767 -338.432547 2.191278e-04   0.150 5.24731e-03 1.53528e-04
        468    28 -338.432765 -338.432546 2.194096e-04   0.150 5.21224e-03 1.52749e-04
        469    28 -338.432766 -338.432544 2.223364e-04   0.150 5.17626e-03 1.52118e-04
        470    28 -338.432768 -338.432549 2.189961e-04   0.150 5.14281e-03 1.51489e-04
        471    28 -338.432773 -338.432553 2.199189e-04   0.150 5.10980e-03 1.50850e-04
        472    28 -338.432776 -338.432554 2.218757e-04   0.150 5.07867e-03 1.50133e-04
        473    28 -338.432781 -338.432553 2.280385e-04   0.150 5.04659e-03 1.49338e-04
        474    28 -338.432785 -338.432551 2.338660e-04   0.150 5.01511e-03 1.48511e-04
        475    28 -338.432789 -338.432547 2.421696e-04   0.150 4.98229e-03 1.47695e-04
        476    28 -338.432792 -338.432542 2.504886e-04   0.150 4.94910e-03 1.46907e-04
        477    28 -338.432794 -338.432536 2.580522e-04   0.150 4.91594e-03 1.46144e-04
        478    28 -338.432796 -338.432531 2.648073e-04   0.150 4.88297e-03 1.45397e-04
        479    28 -338.432797 -338.432525 2.715060e-04   0.150 4.84993e-03 1.44657e-04
        480    28 -338.432797 -338.432520 2.767320e-04   0.150 4.81765e-03 1.43922e-04
        481    28 -338.432796 -338.432515 2.810823e-04   0.150 4.78594e-03 1.43195e-04
        482    28 -338.432796 -338.432511 2.849487e-04   0.150 4.75461e-03 1.42480e-04
        483    28 -338.432798 -338.432508 2.906235e-04   0.150 4.72245e-03 1.41777e-04
        484    28 -338.432799 -338.432505 2.940975e-04   0.150 4.69148e-03 1.41087e-04
        485    28 -338.432799 -338.432502 2.964336e-04   0.150 4.66122e-03 1.40408e-04
        486    28 -338.432800 -338.432500 2.998078e-04   0.150 4.63052e-03 1.39738e-04
        487    28 -338.432800 -338.432499 3.010590e-04   0.150 4.60095e-03 1.39075e-04
        488    28 -338.432801 -338.432497 3.040547e-04   0.150 4.57056e-03 1.38420e-04
        489    28 -338.432801 -338.432496 3.048483e-04   0.150 4.54131e-03 1.37771e-04
        490    28 -338.432802 -338.432495 3.069331e-04   0.150 4.51148e-03 1.37129e-04
        491    28 -338.432803 -338.432493 3.102169e-04   0.150 4.48108e-03 1.36494e-04
        492    28 -338.432802 -338.432492 3.104985e-04   0.150 4.45228e-03 1.35865e-04
        493    28 -338.432802 -338.432490 3.113545e-04   0.150 4.42341e-03 1.35241e-04
        494    28 -338.432804 -338.432489 3.146584e-04   0.150 4.39350e-03 1.34623e-04
        495    28 -338.432804 -338.432487 3.163939e-04   0.150 4.36456e-03 1.34009e-04
        496    28 -338.432804 -338.432486 3.186473e-04   0.150 4.33565e-03 1.33400e-04
        497    28 -338.432802 -338.432484 3.182945e-04   0.150 4.30838e-03 1.32795e-04
        498    28 -338.432805 -338.432482 3.224864e-04   0.150 4.27919e-03 1.32193e-04
        499    28 -338.432804 -338.432480 3.236885e-04   0.150 4.25175e-03 1.31595e-04

        ==> Orbital Optimization <==

            Orbital Optimization converged in  12 iterations 
            Total energy change: -6.625157e-02
            Final gradient norm: 5.942244e-05

        500    28 -338.499056 -338.378768 1.202881e-01   4.830 4.22413e-03 1.31000e-04
        501    54 -338.508750 -338.235445 2.733053e-01   4.830 2.60740e-02 1.17882e-01
        502    31 -338.513968 -338.417465 9.650355e-02   4.830 2.77147e-02 6.12462e-02
        503    28 -338.515363 -338.544454 2.909122e-02   4.830 1.97549e-02 5.14904e-02
        504    28 -338.514321 -338.605381 9.105964e-02   4.830 1.33585e-02 4.93906e-02
        505    28 -338.511428 -338.604366 9.293775e-02   4.830 1.19527e-02 4.82656e-02
        506    31 -338.507706 -338.591699 8.399236e-02   4.830 1.11513e-02 4.50972e-02
        507    28 -338.504014 -338.588043 8.402937e-02   4.830 9.02446e-03 3.97742e-02
        508    28 -338.501693 -338.595458 9.376504e-02   4.830 7.68909e-03 3.39405e-02
        509    28 -338.500660 -338.606893 1.062332e-01   4.830 6.59090e-03 3.00590e-02
        510    28 -338.500488 -338.617401 1.169124e-01   4.830 5.41822e-03 2.86947e-02
        511    28 -338.500941 -338.625394 1.244538e-01   4.830 4.91217e-03 2.71502e-02
        512    28 -338.501456 -338.626570 1.251142e-01   4.830 4.87107e-03 2.54251e-02
        513    28 -338.501800 -338.621679 1.198790e-01   4.830 5.00697e-03 2.38777e-02
        514    28 -338.501919 -338.613082 1.111637e-01   4.830 5.16331e-03 2.25618e-02
        515    28 -338.501838 -338.602487 1.006490e-01   4.830 5.27420e-03 2.12471e-02
        516    28 -338.501627 -338.591067 8.943948e-02   4.830 5.30971e-03 1.98418e-02
        517    28 -338.501405 -338.580924 7.951877e-02   4.830 5.26423e-03 1.85230e-02
        518    28 -338.501237 -338.572458 7.122033e-02   4.830 5.12925e-03 1.75956e-02
        519    28 -338.501055 -338.566221 6.516641e-02   4.830 4.76355e-03 1.68255e-02
        520    28 -338.500940 -338.560336 5.939563e-02   4.830 4.45378e-03 1.63958e-02
        521    28 -338.500900 -338.555041 5.414076e-02   4.830 4.22655e-03 1.60744e-02
        522    25 -338.500804 -338.550207 4.940313e-02   4.830 3.89331e-03 1.57875e-02
        523    24 -338.500763 -338.546507 4.574421e-02   4.830 3.64584e-03 1.54265e-02
        524    28 -338.500725 -338.543719 4.299414e-02   4.830 3.40652e-03 1.50496e-02
        525    24 -338.500685 -338.542134 4.144843e-02   4.830 3.18304e-03 1.46510e-02
        526    28 -338.500673 -338.541564 4.089115e-02   4.830 2.98437e-03 1.42401e-02
        527    28 -338.500656 -338.542134 4.147709e-02   4.830 2.81990e-03 1.38166e-02
        528    28 -338.500664 -338.544159 4.349463e-02   4.830 2.68669e-03 1.33988e-02
        529    27 -338.500697 -338.547058 4.636052e-02   4.830 2.56510e-03 1.30283e-02
        530    28 -338.500749 -338.550203 4.945417e-02   4.830 2.44910e-03 1.27245e-02
        531    28 -338.500808 -338.553261 5.245323e-02   4.830 2.33759e-03 1.24848e-02
        532    28 -338.500861 -338.556305 5.544388e-02   4.830 2.24057e-03 1.22657e-02
        533    28 -338.500902 -338.558853 5.795139e-02   4.830 2.15216e-03 1.20708e-02
        534    28 -338.500930 -338.560885 5.995502e-02   4.830 2.06900e-03 1.18926e-02
        535    28 -338.500953 -338.562445 6.149231e-02   4.830 1.99368e-03 1.16649e-02
        536    28 -338.500961 -338.563110 6.214913e-02   4.830 1.92517e-03 1.14568e-02
        537    28 -338.500952 -338.562967 6.201564e-02   4.830 1.86280e-03 1.12426e-02
        538    28 -338.500927 -338.561976 6.104847e-02   4.830 1.79968e-03 1.10343e-02
        539    28 -338.500891 -338.560460 5.956909e-02   4.830 1.73125e-03 1.08339e-02
        540    28 -338.500846 -338.558660 5.781458e-02   4.830 1.65658e-03 1.06420e-02
        541    28 -338.500798 -338.556755 5.595762e-02   4.830 1.57547e-03 1.04587e-02
        542    28 -338.500749 -338.554951 5.420172e-02   4.830 1.49359e-03 1.02832e-02
        543    28 -338.500705 -338.553345 5.263996e-02   4.830 1.41527e-03 1.01066e-02
        544    28 -338.500665 -338.551702 5.103639e-02   4.830 1.33936e-03 9.94392e-03
        545    28 -338.500633 -338.550140 4.950649e-02   4.830 1.26654e-03 9.79085e-03
        546    28 -338.500607 -338.548672 4.806514e-02   4.830 1.19728e-03 9.64747e-03
        547    28 -338.500587 -338.547367 4.677990e-02   4.830 1.13201e-03 9.51326e-03
        548    28 -338.500570 -338.546215 4.564492e-02   4.830 1.07048e-03 9.38589e-03
        549    28 -338.500559 -338.545283 4.472338e-02   4.830 1.01156e-03 9.26347e-03
        550    28 -338.500555 -338.544648 4.409284e-02   4.830 9.46355e-04 9.17044e-03
        551    28 -338.500561 -338.544717 4.415654e-02   4.830 8.96992e-04 9.04091e-03
        552    28 -338.500565 -338.544700 4.413500e-02   4.830 8.42626e-04 8.93485e-03
        553    28 -338.500562 -338.544755 4.419348e-02   4.830 7.81284e-04 8.83039e-03
        554    28 -338.500551 -338.544920 4.436904e-02   4.830 7.29336e-04 8.72597e-03
        555    28 -338.500540 -338.545071 4.453105e-02   4.830 6.92059e-04 8.62213e-03
        556    28 -338.500526 -338.545115 4.458894e-02   4.830 6.62051e-04 8.51987e-03
        557    28 -338.500513 -338.545077 4.456451e-02   4.830 6.37400e-04 8.41985e-03
        558    28 -338.500501 -338.544971 4.447043e-02   4.830 6.16551e-04 8.32306e-03
        559    28 -338.500491 -338.544819 4.432767e-02   4.830 5.98325e-04 8.23036e-03
        560    28 -338.500484 -338.544643 4.415938e-02   4.830 5.81797e-04 8.14211e-03
        561    28 -338.500479 -338.544465 4.398517e-02   4.830 5.66333e-04 8.05808e-03
        562    28 -338.500475 -338.544295 4.381919e-02   4.830 5.49694e-04 7.97782e-03
        563    28 -338.500470 -338.544151 4.368109e-02   4.830 5.33711e-04 7.90118e-03
        564    28 -338.500469 -338.544043 4.357446e-02   4.830 5.19836e-04 7.82658e-03
        565    28 -338.500468 -338.543905 4.343632e-02   4.830 5.06910e-04 7.75465e-03
        566    28 -338.500468 -338.543746 4.327798e-02   4.830 4.95897e-04 7.68400e-03
        567    28 -338.500468 -338.543623 4.315547e-02   4.830 4.87441e-04 7.61395e-03
        568    28 -338.500467 -338.543466 4.299820e-02   4.830 4.81237e-04 7.54520e-03
        569    28 -338.500467 -338.543319 4.285248e-02   4.830 4.77075e-04 7.47732e-03
        570    25 -338.500466 -338.543164 4.269859e-02   4.830 4.73359e-04 7.41104e-03
        571    25 -338.500466 -338.542979 4.251272e-02   4.830 4.68999e-04 7.34718e-03
        572    25 -338.500468 -338.542762 4.229445e-02   4.830 4.63364e-04 7.28563e-03
        573    25 -338.500471 -338.542510 4.203859e-02   4.830 4.56405e-04 7.22608e-03
        574    26 -338.500477 -338.542222 4.174565e-02   4.830 4.48406e-04 7.16812e-03
        575    25 -338.500483 -338.541900 4.141701e-02   4.830 4.39754e-04 7.11137e-03
        576    26 -338.500492 -338.541549 4.105727e-02   4.830 4.30776e-04 7.05549e-03
        577    26 -338.500492 -338.541174 4.068239e-02   4.830 4.36075e-04 6.99934e-03
        578    26 -338.500490 -338.540846 4.035583e-02   4.830 4.55282e-04 6.94237e-03
        579    26 -338.500492 -338.540545 4.005330e-02   4.830 4.72811e-04 6.88480e-03
        580    25 -338.500496 -338.540228 3.973182e-02   4.830 4.85899e-04 6.82787e-03
        581    25 -338.500503 -338.539896 3.939285e-02   4.830 4.94128e-04 6.77188e-03
        582    26 -338.500512 -338.539557 3.904485e-02   4.830 4.97311e-04 6.71705e-03
        583    25 -338.500524 -338.539221 3.869739e-02   4.830 4.95125e-04 6.66346e-03
        584    26 -338.500537 -338.538895 3.835864e-02   4.830 4.87463e-04 6.61108e-03
        585    26 -338.500552 -338.538586 3.803485e-02   4.830 4.74694e-04 6.55987e-03
        586    26 -338.500567 -338.538298 3.773063e-02   4.830 4.57721e-04 6.50976e-03
        587    25 -338.500584 -338.538033 3.744885e-02   4.830 4.37686e-04 6.46068e-03
        588    25 -338.500602 -338.537793 3.719089e-02   4.830 4.15669e-04 6.41255e-03
        589    25 -338.500620 -338.537576 3.695594e-02   4.830 3.92672e-04 6.36530e-03
        590    26 -338.500637 -338.537378 3.674154e-02   4.830 3.69472e-04 6.31886e-03
        591    25 -338.500654 -338.537197 3.654332e-02   4.830 3.46563e-04 6.27317e-03
        592    25 -338.500671 -338.537027 3.635664e-02   4.830 3.24460e-04 6.22817e-03
        593    25 -338.500686 -338.536862 3.617612e-02   4.830 3.03545e-04 6.18382e-03
        594    28 -338.500701 -338.536703 3.600207e-02   4.830 2.84131e-04 6.14009e-03
        595    28 -338.500715 -338.536531 3.581661e-02   4.830 2.66552e-04 6.09697e-03
        596    28 -338.500728 -338.536356 3.562820e-02   4.830 2.51012e-04 6.05445e-03
        597    28 -338.500740 -338.536170 3.543083e-02   4.830 2.37643e-04 6.01252e-03
        598    28 -338.500750 -338.535974 3.522406e-02   4.830 2.26481e-04 5.97119e-03
        599    30 -338.500760 -338.535768 3.500808e-02   4.830 2.17467e-04 5.93047e-03
        600    29 -338.500769 -338.535554 3.478447e-02   4.830 2.10384e-04 5.89038e-03
        601    29 -338.500777 -338.535333 3.455529e-02   4.830 2.05003e-04 5.85092e-03
        602    29 -338.500785 -338.535108 3.432321e-02   4.830 2.01004e-04 5.81213e-03
        603    30 -338.500791 -338.534883 3.409124e-02   4.830 1.98095e-04 5.77401e-03
        604    29 -338.500797 -338.534660 3.386261e-02   4.830 1.96026e-04 5.73658e-03
        605    29 -338.500803 -338.534443 3.363952e-02   4.830 1.94566e-04 5.69982e-03
        606    29 -338.500809 -338.534233 3.342490e-02   4.830 1.93577e-04 5.66373e-03
        607    29 -338.500814 -338.534034 3.321981e-02   4.830 1.92919e-04 5.62830e-03
        608    29 -338.500819 -338.533844 3.302538e-02   4.830 1.92503e-04 5.59350e-03
        609    29 -338.500824 -338.533665 3.284161e-02   4.830 1.92248e-04 5.55932e-03
        610    28 -338.500829 -338.533497 3.266813e-02   4.830 1.92074e-04 5.52572e-03
        611    28 -338.500834 -338.533337 3.250350e-02   4.830 1.91932e-04 5.49271e-03
        612    28 -338.500839 -338.533186 3.234684e-02   4.830 1.91763e-04 5.46025e-03
        613    28 -338.500844 -338.533041 3.219638e-02   4.830 1.91513e-04 5.42834e-03
        614    28 -338.500850 -338.532900 3.205052e-02   4.830 1.91141e-04 5.39696e-03
        615    28 -338.500855 -338.532763 3.190772e-02   4.830 1.90616e-04 5.36610e-03
        616    28 -338.500861 -338.532628 3.176661e-02   4.830 1.89921e-04 5.33573e-03
        617    28 -338.500867 -338.532493 3.162606e-02   4.830 1.89048e-04 5.30586e-03
        618    28 -338.500874 -338.532359 3.148525e-02   4.830 1.88005e-04 5.27647e-03
        619    28 -338.500880 -338.532223 3.134360e-02   4.830 1.86804e-04 5.24753e-03
        620    28 -338.500886 -338.532087 3.120080e-02   4.830 1.85648e-04 5.21870e-03
        621    28 -338.500893 -338.531978 3.108468e-02   4.830 1.84511e-04 5.18978e-03
        622    28 -338.500900 -338.531883 3.098314e-02   4.830 1.82983e-04 5.16111e-03
        623    28 -338.500907 -338.531789 3.088204e-02   4.830 1.81072e-04 5.13312e-03
        624    28 -338.500914 -338.531689 3.077468e-02   4.830 1.78923e-04 5.10588e-03
        625    28 -338.500921 -338.531577 3.065622e-02   4.830 1.76698e-04 5.07927e-03
        626    28 -338.500927 -338.531451 3.052422e-02   4.830 1.74517e-04 5.05318e-03
        627    28 -338.500933 -338.531311 3.037865e-02   4.830 1.72445e-04 5.02749e-03
[...]
       1738    17 -338.495136 -338.495025 1.106959e-04   1.283 4.34932e-05 3.15376e-05
       1739    17 -338.495136 -338.495025 1.104308e-04   1.283 4.34419e-05 3.14299e-05
       1740    17 -338.495136 -338.495026 1.101424e-04   1.283 4.33907e-05 3.13229e-05
       1741    17 -338.495136 -338.495026 1.098831e-04   1.283 4.33396e-05 3.12165e-05
       1742    17 -338.495136 -338.495026 1.096164e-04   1.283 4.32886e-05 3.11107e-05
       1743    17 -338.495136 -338.495026 1.093499e-04   1.283 4.32377e-05 3.10056e-05
       1744    17 -338.495136 -338.495027 1.090902e-04   1.283 4.31869e-05 3.09012e-05
       1745    17 -338.495136 -338.495027 1.088011e-04   1.283 4.31362e-05 3.07974e-05
       1746    17 -338.495136 -338.495027 1.085442e-04   1.283 4.30855e-05 3.06942e-05
       1747    17 -338.495136 -338.495027 1.082796e-04   1.283 4.30350e-05 3.05916e-05
       1748    17 -338.495136 -338.495028 1.080142e-04   1.283 4.29845e-05 3.04896e-05
       1749    17 -338.495136 -338.495028 1.077489e-04   1.283 4.29341e-05 3.03883e-05
       1750    17 -338.495136 -338.495028 1.074846e-04   1.816 4.28838e-05 3.02876e-05
       1751    24 -338.495136 -338.495029 1.069490e-04   1.816 4.28020e-05 3.02285e-05
       1752    16 -338.495136 -338.495029 1.069301e-04   1.816 4.27332e-05 3.01634e-05
       1753    17 -338.495136 -338.495029 1.065286e-04   1.816 4.26679e-05 3.01056e-05
       1754    17 -338.495136 -338.495030 1.061819e-04   1.816 4.26037e-05 3.00483e-05
       1755    24 -338.495136 -338.495030 1.056541e-04   1.816 4.25366e-05 2.99926e-05
       1756    16 -338.495136 -338.495030 1.056377e-04   1.816 4.24719e-05 2.99329e-05
       1757    17 -338.495136 -338.495031 1.052354e-04   1.816 4.24074e-05 2.98748e-05
       1758    17 -338.495136 -338.495031 1.049507e-04   1.816 4.23422e-05 2.98165e-05
       1759    24 -338.495136 -338.495031 1.045300e-04   1.816 4.22735e-05 2.97603e-05
       1760    16 -338.495136 -338.495031 1.046519e-04   1.816 4.22074e-05 2.97006e-05
       1761    17 -338.495136 -338.495031 1.043926e-04   1.816 4.21415e-05 2.96428e-05
       1762    17 -338.495136 -338.495032 1.042366e-04   1.816 4.20754e-05 2.95852e-05
       1763    17 -338.495136 -338.495032 1.040992e-04   1.816 4.20090e-05 2.95273e-05
       1764    24 -338.495136 -338.495032 1.038120e-04   1.816 4.19395e-05 2.94736e-05
       1765    16 -338.495136 -338.495032 1.040188e-04   1.816 4.18735e-05 2.94137e-05
       1766    17 -338.495136 -338.495032 1.038590e-04   1.816 4.18086e-05 2.93565e-05
       1767    16 -338.495136 -338.495032 1.037652e-04   1.816 4.17434e-05 2.92995e-05
       1768    17 -338.495136 -338.495032 1.036520e-04   1.816 4.16779e-05 2.92422e-05
       1769    25 -338.495136 -338.495032 1.033647e-04   1.816 4.16087e-05 2.91883e-05
       1770    16 -338.495136 -338.495032 1.035461e-04   1.816 4.15435e-05 2.91292e-05
       1771    17 -338.495136 -338.495033 1.033480e-04   1.816 4.14790e-05 2.90726e-05
       1772    16 -338.495136 -338.495033 1.032030e-04   1.816 4.14144e-05 2.90162e-05
       1773    17 -338.495136 -338.495033 1.030350e-04   1.816 4.13493e-05 2.89594e-05
       1774    25 -338.495136 -338.495033 1.026988e-04   1.816 4.12811e-05 2.89062e-05
       1775    16 -338.495136 -338.495033 1.028250e-04   1.816 4.12165e-05 2.88478e-05
       1776    17 -338.495136 -338.495033 1.025834e-04   1.816 4.11526e-05 2.87918e-05
       1777    16 -338.495136 -338.495034 1.023969e-04   1.816 4.10888e-05 2.87360e-05
       1778    17 -338.495136 -338.495034 1.021960e-04   1.816 4.10245e-05 2.86799e-05
       1779    25 -338.495136 -338.495034 1.018315e-04   1.816 4.09571e-05 2.86273e-05
       1780    16 -338.495136 -338.495034 1.019491e-04   1.816 4.08931e-05 2.85696e-05
       1781    17 -338.495136 -338.495034 1.017020e-04   1.816 4.08299e-05 2.85142e-05
       1782    16 -338.495136 -338.495034 1.015129e-04   1.816 4.07667e-05 2.84592e-05
       1783    17 -338.495136 -338.495035 1.013143e-04   1.816 4.07030e-05 2.84038e-05
       1784    24 -338.495136 -338.495035 1.009587e-04   1.816 4.06359e-05 2.83518e-05
       1785    16 -338.495136 -338.495035 1.010845e-04   1.816 4.05729e-05 2.82949e-05
       1786    17 -338.495136 -338.495035 1.008436e-04   1.816 4.05102e-05 2.82403e-05
       1787    16 -338.495136 -338.495035 1.006567e-04   1.816 4.04475e-05 2.81859e-05
       1788    17 -338.495136 -338.495036 1.004593e-04   1.816 4.03845e-05 2.81312e-05
       1789    25 -338.495136 -338.495036 1.000938e-04   1.816 4.03187e-05 2.80799e-05
       1790    16 -338.495136 -338.495036 1.002274e-04   1.816 4.02557e-05 2.80237e-05
       1791    17 -338.495136 -338.495036 9.998460e-05   1.816 4.01936e-05 2.79697e-05

        ==> Orbital Optimization <==

            Orbital Optimization converged in   4 iterations 
            Total energy change: -9.302232e-08
            Final gradient norm: 8.958927e-05

       1792    32 -338.495141 -338.494962 1.784052e-04   1.816 4.74794e-05 6.55148e-05
       1793    30 -338.495143 -338.495003 1.406470e-04   1.816 4.83245e-05 5.05269e-05
       1794    27 -338.495144 -338.495019 1.247450e-04   1.816 4.48281e-05 4.83533e-05
       1795    26 -338.495142 -338.495021 1.213059e-04   1.816 4.27412e-05 4.71117e-05
       1796    27 -338.495141 -338.495016 1.244327e-04   1.816 4.21691e-05 4.54386e-05
       1797    25 -338.495139 -338.495013 1.263205e-04   1.816 4.19568e-05 4.40241e-05
       1798    18 -338.495139 -338.495014 1.249242e-04   1.816 4.17007e-05 4.30064e-05
       1799    25 -338.495139 -338.495020 1.189275e-04   1.816 4.14294e-05 4.22967e-05
       1800    17 -338.495140 -338.495026 1.139320e-04   1.816 4.11774e-05 4.17903e-05
       1801    25 -338.495140 -338.495032 1.088063e-04   1.816 4.09666e-05 4.13879e-05
       1802    17 -338.495141 -338.495035 1.055397e-04   1.816 4.07721e-05 4.10546e-05
       1803    17 -338.495141 -338.495038 1.031192e-04   1.816 4.05825e-05 4.07739e-05
       1804    25 -338.495141 -338.495039 1.013741e-04   1.816 4.03894e-05 4.05245e-05
       1805    17 -338.495140 -338.495039 1.010851e-04   1.816 4.02075e-05 4.02797e-05
       1806    17 -338.495140 -338.495040 1.002764e-04   1.816 4.00406e-05 4.00360e-05
       1807    25 -338.495140 -338.495040 9.965754e-05   1.816 3.98907e-05 3.97842e-05

        ==> Orbital Optimization <==

            Orbital Optimization converged in   1 iterations 
            Total energy change: -8.171810e-10
            Final gradient norm: 7.644658e-05


      v2RDM iterations converged!

    Molecular point group: d2h
    Full point group: D2h

    Geometry (in Angstrom), charge = 0, multiplicity = 3:

       Center              X                  Y                   Z               Mass       
    ------------   -----------------  -----------------  -----------------  -----------------
         C            0.000000000000    -1.438258410000     0.000000000000    12.000000000000
         C            1.263216370000    -0.671498620000     0.000000000000    12.000000000000
         C            1.263216370000     0.671498620000     0.000000000000    12.000000000000
         C           -0.000000000000     1.438258410000     0.000000000000    12.000000000000
         C           -1.263216370000     0.671498620000     0.000000000000    12.000000000000
         C           -1.263216370000    -0.671498620000     0.000000000000    12.000000000000
         H            2.186787090000    -1.240953000000     0.000000000000     1.007825032230
         H            2.186787090000     1.240953000000     0.000000000000     1.007825032230
         H           -2.186787090000     1.240953000000     0.000000000000     1.007825032230
         H           -2.186787090000    -1.240953000000     0.000000000000     1.007825032230
         N           -0.000000000000     2.710039420000     0.000000000000    14.003074004430
         N            0.000000000000    -2.710039420000     0.000000000000    14.003074004430

  -AO BASIS SET INFORMATION:
    Name                   = CC-PVDZ
    Blend                  = CC-PVDZ
    Total number of shells = 60
    Number of primitives   = 196
    Number of AO           = 140
    Number of SO           = 132
    Maximum AM             = 2
    Spherical Harmonics    = TRUE

  -Contraction Scheme:
    Atom   Type   All Primitives // Shells:
   ------ ------ --------------------------
       1     C     17s 4p 1d // 3s 2p 1d 
       2     C     17s 4p 1d // 3s 2p 1d 
       3     C     17s 4p 1d // 3s 2p 1d 
       4     C     17s 4p 1d // 3s 2p 1d 
       5     C     17s 4p 1d // 3s 2p 1d 
       6     C     17s 4p 1d // 3s 2p 1d 
       7     H     4s 1p // 2s 1p 
       8     H     4s 1p // 2s 1p 
       9     H     4s 1p // 2s 1p 
      10     H     4s 1p // 2s 1p 
      11     N     17s 4p 1d // 3s 2p 1d 
      12     N     17s 4p 1d // 3s 2p 1d 

  ==> AO Basis Functions <==

    [ CC-PVDZ ]
    spherical
    ****
    C   1
    S   8 1.00
                      6665.00000000           0.00069200
                      1000.00000000           0.00532900
                       228.00000000           0.02707700
                        64.71000000           0.10171800
                        21.06000000           0.27474000
                         7.49500000           0.44856400
                         2.79700000           0.28507400
                         0.52150000           0.01520400
    S   8 1.00
                      6665.00000000          -0.00014600
                      1000.00000000          -0.00115400
                       228.00000000          -0.00572500
                        64.71000000          -0.02331200
                        21.06000000          -0.06395500
                         7.49500000          -0.14998100
                         2.79700000          -0.12726200
                         0.52150000           0.54452900
    S   1 1.00
                         0.15960000           1.00000000
    P   3 1.00
                         9.43900000           0.03810900
                         2.00200000           0.20948000
                         0.54560000           0.50855700
    P   1 1.00
                         0.15170000           1.00000000
    D   1 1.00
                         0.55000000           1.00000000
    ****
    C   2
    S   8 1.00
                      6665.00000000           0.00069200
                      1000.00000000           0.00532900
                       228.00000000           0.02707700
                        64.71000000           0.10171800
                        21.06000000           0.27474000
                         7.49500000           0.44856400
                         2.79700000           0.28507400
                         0.52150000           0.01520400
    S   8 1.00
                      6665.00000000          -0.00014600
                      1000.00000000          -0.00115400
                       228.00000000          -0.00572500
                        64.71000000          -0.02331200
                        21.06000000          -0.06395500
                         7.49500000          -0.14998100
                         2.79700000          -0.12726200
                         0.52150000           0.54452900
    S   1 1.00
                         0.15960000           1.00000000
    P   3 1.00
                         9.43900000           0.03810900
                         2.00200000           0.20948000
                         0.54560000           0.50855700
    P   1 1.00
                         0.15170000           1.00000000
    D   1 1.00
                         0.55000000           1.00000000
    ****
    H   7
    S   3 1.00
                        13.01000000           0.01968500
                         1.96200000           0.13797700
                         0.44460000           0.47814800
    S   1 1.00
                         0.12200000           1.00000000
    P   1 1.00
                         0.72700000           1.00000000
    ****
    N  11
    S   8 1.00
                      9046.00000000           0.00070000
                      1357.00000000           0.00538900
                       309.30000000           0.02740600
                        87.73000000           0.10320700
                        28.56000000           0.27872300
                        10.21000000           0.44854000
                         3.83800000           0.27823800
                         0.74660000           0.01544000
    S   8 1.00
                      9046.00000000          -0.00015300
                      1357.00000000          -0.00120800
                       309.30000000          -0.00599200
                        87.73000000          -0.02454400
                        28.56000000          -0.06745900
                        10.21000000          -0.15807800
                         3.83800000          -0.12183100
                         0.74660000           0.54900300
    S   1 1.00
                         0.22480000           1.00000000
    P   3 1.00
                        13.55000000           0.03991900
                         2.91700000           0.21716900
                         0.79730000           0.51031900
    P   1 1.00
                         0.21850000           1.00000000
    D   1 1.00
                         0.81700000           1.00000000
    ****

      na:                                    6.000000
      nb:                                    4.000000
      v2RDM total spin [S(S+1)]:             2.000001

      Nuclear Repulsion Energy:              301.872747225457
      Two-Electron Energy:                   415.068692669698
      Kinetic Energy:                        338.509268329407
      Electron-Nuclear Potential Energy:   -1393.945847882060

    * v2RDM total energy:                   -338.495139657497


 # Natural Orbital Occupation Numbers (alpha) #
 Irrep: 1
      1:  1.0000000
      2:  1.0000000
      3:  1.0000000
      4:  1.0000000
      5:  1.0000000
      6:  1.0000000
      7:  1.0000000
      8:  1.0000000
      9:  0.0000000
     10:  0.0000000
     11:  0.0000000
     12:  0.0000000
     13:  0.0000000
     14:  0.0000000
     15:  0.0000000
     16:  0.0000000
     17:  0.0000000
     18:  0.0000000
     19:  0.0000000
     20:  0.0000000
     21:  0.0000000
     22:  0.0000000
     23:  0.0000000
     24:  0.0000000
     25:  0.0000000
     26:  0.0000000
     27:  0.0000000
     28:  0.0000000

 Irrep: 2
      1:  1.0000000
      2:  1.0000000
      3:  1.0000000
      4:  0.9732221
      5:  0.0000000
      6:  0.0000000
      7:  0.0000000
      8:  0.0000000
      9:  0.0000000
     10:  0.0000000
     11:  0.0000000
     12:  0.0000000
     13:  0.0000000
     14:  0.0000000
     15:  0.0000000
     16:  0.0000000
     17:  0.0000000
     18:  0.0000000
     19:  0.0000000
     20:  0.0000000

 Irrep: 3
      1:  0.9493565
      2:  0.0000000
      3:  0.0000000
      4:  0.0000000
      5:  0.0000000
      6:  0.0000000
      7:  0.0000000

 Irrep: 4
      1:  0.9569527
      2:  0.1482034
      3:  0.0250702
      4:  0.0000000
      5:  0.0000000
      6:  0.0000000
      7:  0.0000000
      8:  0.0000000
      9:  0.0000000
     10:  0.0000000
     11:  0.0000000

 Irrep: 5
      1:  0.0506632
      2:  0.0000000
      3:  0.0000000
      4:  0.0000000
      5:  0.0000000
      6:  0.0000000
      7:  0.0000000

 Irrep: 6
      1:  0.9710102
      2:  0.9113347
      3:  0.0437659
      4:  0.0000000
      5:  0.0000000
      6:  0.0000000
      7:  0.0000000
      8:  0.0000000
      9:  0.0000000
     10:  0.0000000
     11:  0.0000000

 Irrep: 7
      1:  1.0000000
      2:  1.0000000
      3:  1.0000000
      4:  1.0000000
      5:  1.0000000
      6:  1.0000000
      7:  1.0000000
      8:  0.0000000
      9:  0.0000000
     10:  0.0000000
     11:  0.0000000
     12:  0.0000000
     13:  0.0000000
     14:  0.0000000
     15:  0.0000000
     16:  0.0000000
     17:  0.0000000
     18:  0.0000000
     19:  0.0000000
     20:  0.0000000
     21:  0.0000000
     22:  0.0000000
     23:  0.0000000
     24:  0.0000000
     25:  0.0000000
     26:  0.0000000
     27:  0.0000000
     28:  0.0000000

 Irrep: 8
      1:  1.0000000
      2:  1.0000000
      3:  1.0000000
      4:  1.0000000
      5:  0.9704211
      6:  0.0000000
      7:  0.0000000
      8:  0.0000000
      9:  0.0000000
     10:  0.0000000
     11:  0.0000000
     12:  0.0000000
     13:  0.0000000
     14:  0.0000000
     15:  0.0000000
     16:  0.0000000
     17:  0.0000000
     18:  0.0000000
     19:  0.0000000
     20:  0.0000000


 # Natural Orbital Occupation Numbers (beta) #
 Irrep: 1
      1:  1.0000000
      2:  1.0000000
      3:  1.0000000
      4:  1.0000000
      5:  1.0000000
      6:  1.0000000
      7:  1.0000000
      8:  1.0000000
      9:  0.0000000
     10:  0.0000000
     11:  0.0000000
     12:  0.0000000
     13:  0.0000000
     14:  0.0000000
     15:  0.0000000
     16:  0.0000000
     17:  0.0000000
     18:  0.0000000
     19:  0.0000000
     20:  0.0000000
     21:  0.0000000
     22:  0.0000000
     23:  0.0000000
     24:  0.0000000
     25:  0.0000000
     26:  0.0000000
     27:  0.0000000
     28:  0.0000000

 Irrep: 2
      1:  1.0000000
      2:  1.0000000
      3:  1.0000000
      4:  0.0310057
      5:  0.0000000
      6:  0.0000000
      7:  0.0000000
      8:  0.0000000
      9:  0.0000000
     10:  0.0000000
     11:  0.0000000
     12:  0.0000000
     13:  0.0000000
     14:  0.0000000
     15:  0.0000000
     16:  0.0000000
     17:  0.0000000
     18:  0.0000000
     19:  0.0000000
     20:  0.0000000

 Irrep: 3
      1:  0.9469822
      2:  0.0000000
      3:  0.0000000
      4:  0.0000000
      5:  0.0000000
      6:  0.0000000
      7:  0.0000000

 Irrep: 4
      1:  0.9536032
      2:  0.0937872
      3:  0.0257379
      4:  0.0000000
      5:  0.0000000
      6:  0.0000000
      7:  0.0000000
      8:  0.0000000
      9:  0.0000000
     10:  0.0000000
     11:  0.0000000

 Irrep: 5
      1:  0.0486760
      2:  0.0000000
      3:  0.0000000
      4:  0.0000000
      5:  0.0000000
      6:  0.0000000
      7:  0.0000000

 Irrep: 6
      1:  0.9720407
      2:  0.8603441
      3:  0.0410536
      4:  0.0000000
      5:  0.0000000
      6:  0.0000000
      7:  0.0000000
      8:  0.0000000
      9:  0.0000000
     10:  0.0000000
     11:  0.0000000

 Irrep: 7
      1:  1.0000000
      2:  1.0000000
      3:  1.0000000
      4:  1.0000000
      5:  1.0000000
      6:  1.0000000
      7:  1.0000000
      8:  0.0000000
      9:  0.0000000
     10:  0.0000000
     11:  0.0000000
     12:  0.0000000
     13:  0.0000000
     14:  0.0000000
     15:  0.0000000
     16:  0.0000000
     17:  0.0000000
     18:  0.0000000
     19:  0.0000000
     20:  0.0000000
     21:  0.0000000
     22:  0.0000000
     23:  0.0000000
     24:  0.0000000
     25:  0.0000000
     26:  0.0000000
     27:  0.0000000
     28:  0.0000000

 Irrep: 8
      1:  1.0000000
      2:  1.0000000
      3:  1.0000000
      4:  1.0000000
      5:  0.0267695
      6:  0.0000000
      7:  0.0000000
      8:  0.0000000
      9:  0.0000000
     10:  0.0000000
     11:  0.0000000
     12:  0.0000000
     13:  0.0000000
     14:  0.0000000
     15:  0.0000000
     16:  0.0000000
     17:  0.0000000
     18:  0.0000000
     19:  0.0000000
     20:  0.0000000


  ==> Iteration count <==

      Microiterations:                   40019
      Macroiterations:                    1808
      Orbital optimization steps:            5

  ==> Wall time <==

      Microiterations:                   56.91 s
      Macroiterations:                    7.97 s
      Orbital optimization:              16.25 s
      Total:                             83.77 s

    triplet...........................................................PASSED

    Psi4 stopped on: Thursday, 16 July 2020 09:25AM
    Psi4 wall time for execution: 0:02:51.03

*** Psi4 exiting successfully. Buy a developer a beer!
