
    -----------------------------------------------------------------------
          Psi4: An Open-Source Ab Initio Electronic Structure Package
                               Psi4 1.9.1 

                         Git: Rev {HEAD} f53cdd7 dirty


    D. G. A. Smith, L. A. Burns, A. C. Simmonett, R. M. Parrish,
    M. C. Schieber, R. Galvelis, P. Kraus, H. Kruse, R. Di Remigio,
    A. Alenaizan, A. M. James, S. Lehtola, J. P. Misiewicz, M. Scheurer,
    R. A. Shaw, J. B. Schriber, Y. Xie, Z. L. Glick, D. A. Sirianni,
    J. S. O'Brien, J. M. Waldrop, A. Kumar, E. G. Hohenstein,
    B. P. Pritchard, B. R. Brooks, H. F. Schaefer III, A. Yu. Sokolov,
    K. Patkowski, A. E. DePrince III, U. Bozkaya, R. A. King,
    F. A. Evangelista, J. M. Turney, T. D. Crawford, C. D. Sherrill,
    J. Chem. Phys. 152(18) 184108 (2020). https://doi.org/10.1063/5.0006002

                            Additional Code Authors
    E. T. Seidl, C. L. Janssen, E. F. Valeev, M. L. Leininger,
    J. F. Gonthier, R. M. Richard, H. R. McAlexander, M. Saitow, X. Wang,
    P. Verma, M. H. Lechner, A. Jiang, S. Behnle, A. G. Heide,
    M. F. Herbst, and D. L. Poole

             Previous Authors, Complete List of Code Contributors,
                       and Citations for Specific Modules
    https://github.com/psi4/psi4/blob/master/codemeta.json
    https://github.com/psi4/psi4/graphs/contributors
    http://psicode.org/psi4manual/master/introduction.html#citing-psifour

    -----------------------------------------------------------------------


    Psi4 started on: Monday, 01 July 2024 01:31PM

    Process ID: 65474
    Host:       wc-dhcp35d189.employee-secure.wireless.fsu.edu
    PSIDATADIR: /Users/deprince/software/psi4/v1.9.1/psi4/install/share/psi4
    Memory:     500.0 MiB
    Threads:    1
    
  ==> Input File <==

--------------------------------------------------------------------------
# PYTHONPATH must include directory above plugin directory.
#     Define either externally or here, then import plugin.
sys.path.insert(0, '../../..')
import hilbert
import numpy as np

RKS_B3LYP_cc_pvdz = [0.263001195667,
                     0.269122724641,
                     0.335248924487,
                     0.359912987039,
                     0.427213676123,
                     0.495157203226,
                     0.603715553309,
                     0.741980246477,
                     0.797368119446,
                     0.856751194367]

UKS_B3LYP_cc_pvdz = [0.240698951321,
                     0.263001195667,
                     0.269122724641,
                     0.315056562381,
                     0.315169421848,
                     0.335248924487,
                     0.359912987039,
                     0.382196090115,
                     0.427213676123,
                     0.445996622580]

molecule {
         O            0.000000000000     0.000000000000    -0.068516219320 
         H            0.000000000000    -0.790689573744     0.543701060715 
         H            0.000000000000     0.790689573744     0.543701060715 
no_reorient
nocom
symmetry c1
}

set {
  basis cc-pvdz
  scf_type cd 
  e_convergence 1e-8
  d_convergence 1e-8
  cholesky_tolerance 1e-12
} 

# freq: w
w = 0.265754876050

# lambda: 0.05
# coupling g = 0.05 / sqrt(2*w)
g = 0.05 / np.sqrt(2.0 * w)

set hilbert {
  maxiter 500
  n_photon_states          2
  cavity_frequency         [0.0, 0.0, $w]
  cavity_coupling_strength [0.0, 0.0, $g]
  maxdim                   15
  indim                    5
  qed_dft_functional b3lyp
}

set num_roots 10
set TDSCF_TDA false
set TDSCF_STATES 10
set df_ints_io save

# restricted tddft
set reference rks
energy('qed-tddft')

for n, ref in enumerate(RKS_B3LYP_cc_pvdz):
    ex_en = psi4.variable(f"QED-TDDFT ROOT 0 -> ROOT {n+1} EXCITATION ENERGY")
    compare_values(ref,ex_en, 4, f"Restricted QED-TDDFT EXCITATION ENERGY {n+1}")

# unrestricted tddft
set reference uks 
energy('qed-tddft')

for n, ref in enumerate(UKS_B3LYP_cc_pvdz):
    ex_en = psi4.variable(f"QED-TDDFT ROOT 0 -> ROOT {n+1} EXCITATION ENERGY")
    compare_values(ref,ex_en, 4, f"Unrestricted QED-TDDFT EXCITATION ENERGY {n+1}")

--------------------------------------------------------------------------

Scratch directory: /tmp/

Scratch directory: /tmp/
   => Libint2 <=

    Primary   basis highest AM E, G, H:  5, 4, 3
    Auxiliary basis highest AM E, G, H:  6, 5, 4
    Onebody   basis highest AM E, G, H:  6, 5, 4
    Solid Harmonics ordering:            Gaussian

*** tstart() called on wc-dhcp35d189.employee-secure.wireless.fsu.edu
*** at Mon Jul  1 13:31:38 2024

   => Loading Basis Set <=

    Name: CC-PVDZ
    Role: ORBITAL
    Keyword: BASIS
    atoms 1   entry O          line   198 file /Users/deprince/software/psi4/v1.9.1/psi4/install/share/psi4/basis/cc-pvdz.gbs 
    atoms 2-3 entry H          line    22 file /Users/deprince/software/psi4/v1.9.1/psi4/install/share/psi4/basis/cc-pvdz.gbs 


         ---------------------------------------------------------
                                   SCF
               by Justin Turney, Rob Parrish, Andy Simmonett
                          and Daniel G. A. Smith
                              RKS Reference
                        1 Threads,    500 MiB Core
         ---------------------------------------------------------

  ==> Geometry <==

    Molecular point group: c1
    Full point group: C2v

    Geometry (in Angstrom), charge = 0, multiplicity = 1:

       Center              X                  Y                   Z               Mass       
    ------------   -----------------  -----------------  -----------------  -----------------
         O            0.000000000000     0.000000000000    -0.068516219320    15.994914619570
         H            0.000000000000    -0.790689573744     0.543701060715     1.007825032230
         H            0.000000000000     0.790689573744     0.543701060715     1.007825032230

  Running in c1 symmetry.

  Rotational constants: A =     25.12555  B =     13.37733  C =      8.72955 [cm^-1]
  Rotational constants: A = 753245.07149  B = 401042.16706  C = 261705.25473 [MHz]
  Nuclear repulsion =    8.801465564563406

  Charge       = 0
  Multiplicity = 1
  Electrons    = 10
  Nalpha       = 5
  Nbeta        = 5

  ==> Algorithm <==

  SCF Algorithm Type is CD.
  DIIS enabled.
  MOM disabled.
  Fractional occupation disabled.
  Guess Type is SAD.
  Energy threshold   = 1.00e-08
  Density threshold  = 1.00e-08
  Integral threshold = 1.00e-12

  ==> Primary Basis <==

  Basis Set: CC-PVDZ
    Blend: CC-PVDZ
    Number of shells: 12
    Number of basis functions: 24
    Number of Cartesian functions: 25
    Spherical Harmonics?: true
    Max angular momentum: 2

  ==> DFT Potential <==

   => LibXC <=

    Version 6.2.2
    S. Lehtola, C. Steigemann, M. J.T. Oliveira, and M. A.L. Marques.,  SoftwareX 7, 1–5 (2018) (10.1016/j.softx.2017.11.002)

   => Composite Functional: B3LYP <= 

    B3LYP Hyb-GGA Exchange-Correlation Functional

    P. J. Stephens, F. J. Devlin, C. F. Chabalowski, and M. J. Frisch.,  J. Phys. Chem. 98, 11623 (1994) (10.1021/j100096a001)

    Deriv               =              1
    GGA                 =           TRUE
    Meta                =          FALSE

    Exchange Hybrid     =           TRUE
    MP2 Hybrid          =          FALSE

   => Exchange Functionals <=

    0.0800   Slater exchange
    0.7200         Becke 88

   => Exact (HF) Exchange <=

    0.2000               HF 

   => Correlation Functionals <=

    0.1900   Vosko, Wilk & Nusair (VWN5_RPA)
    0.8100   Lee, Yang & Parr

   => LibXC Density Thresholds  <==

    XC_HYB_GGA_XC_B3LYP:  1.00E-15 

   => Molecular Quadrature <=

    Radial Scheme          =       TREUTLER
    Pruning Scheme         =           NONE
    Nuclear Scheme         =       TREUTLER

    Blocking Scheme        =         OCTREE
    BS radius alpha        =              1
    Pruning alpha          =              1
    Radial Points          =             75
    Spherical Points       =            302
    Total Points           =          66208
    Total Blocks           =            555
    Max Points             =            256
    Max Functions          =             24
    Weights Tolerance      =       1.00E-15

  ==> Integral Setup <==

  ==> CDJK: Cholesky-decomposed J/K Matrices <==

    J tasked:                     Yes
    K tasked:                     Yes
    wK tasked:                     No
    OpenMP threads:                 1
    Integrals threads:              1
    Memory [MiB]:                 327
    Algorithm:                   Core
    Integral Cache:              SAVE
    Schwarz Cutoff:             1E-12
    Cholesky tolerance:      1.00E-12
    No. Cholesky vectors:         279

  Cached 100.0% of DFT collocation blocks in 0.046 [GiB].

  Minimum eigenvalue in the overlap matrix is 3.7382439197E-02.
  Reciprocal condition number of the overlap matrix is 1.0328862040E-02.
    Using symmetric orthogonalization.

  ==> Pre-Iterations <==

  SCF Guess: Superposition of Atomic Densities via on-the-fly atomic UHF (no occupation information).

   -------------------------
    Irrep   Nso     Nmo    
   -------------------------
     A         24      24 
   -------------------------
    Total      24      24
   -------------------------

  ==> Iterations <==

                        Total Energy        Delta E     RMS |[F,P]|

   @RKS iter SAD:   -76.07329144459568   -7.60733e+01   0.00000e+00 
   @RKS iter   1:   -76.27197823513029   -1.98687e-01   2.60923e-02 ADIIS/DIIS
   @RKS iter   2:   -76.10130541739871    1.70673e-01   3.79041e-02 ADIIS/DIIS
   @RKS iter   3:   -76.41791371971283   -3.16608e-01   2.10304e-03 ADIIS/DIIS
   @RKS iter   4:   -76.41875886028042   -8.45141e-04   1.26517e-04 ADIIS/DIIS
   @RKS iter   5:   -76.41876198201551   -3.12174e-06   1.77371e-05 DIIS
   @RKS iter   6:   -76.41876204418963   -6.21741e-08   8.38002e-07 DIIS
   @RKS iter   7:   -76.41876204438739   -1.97758e-10   8.66028e-08 DIIS
   @RKS iter   8:   -76.41876204438937   -1.97531e-12   1.78792e-09 DIIS
  Energy and wave function converged.


  ==> Post-Iterations <==

   Electrons on quadrature grid:
      Ntotal   =   10.0000000529 ; deviation = 5.289e-08 

    Orbital Energies [Eh]
    ---------------------

    Doubly Occupied:                                                      

       1A    -19.128614     2A     -0.977901     3A     -0.498738  
       4A     -0.361782     5A     -0.285089  

    Virtual:                                                              

       6A      0.042008     7A      0.116901     8A      0.536490  
       9A      0.580512    10A      0.901964    11A      0.916856  
      12A      0.994831    13A      1.211904    14A      1.224719  
      15A      1.422457    16A      1.600416    17A      1.629596  
      18A      2.028077    19A      2.062398    20A      2.885727  
      21A      2.927256    22A      3.078274    23A      3.428489  
      24A      3.692712  

    Final Occupation by Irrep:
              A 
    DOCC [     5 ]
    NA   [     5 ]
    NB   [     5 ]

  @RKS Final Energy:   -76.41876204438937

   => Energetics <=

    Nuclear Repulsion Energy =              8.8014655645634061
    One-Electron Energy =                -122.5182632364082878
    Two-Electron Energy =                  44.8449000978726104
    DFT Exchange-Correlation Energy =      -7.5468644704170851
    Empirical Dispersion Energy =           0.0000000000000000
    VV10 Nonlocal Energy =                  0.0000000000000000
    Total Energy =                        -76.4187620443893678

Computation Completed


Properties will be evaluated at   0.000000,   0.000000,   0.000000 [a0]

Properties computed using the SCF density matrix


 Multipole Moments:

 ------------------------------------------------------------------------------------
     Multipole            Electronic (a.u.)      Nuclear  (a.u.)        Total (a.u.)
 ------------------------------------------------------------------------------------

 L = 1.  Multiply by 2.5417464519 to convert [e a0] to [Debye]
 Dipole X            :         -0.0000000            0.0000000           -0.0000000
 Dipole Y            :         -0.0000000            0.0000000           -0.0000000
 Dipole Z            :         -0.2615819            1.0190771            0.7574952
 Magnitude           :                                                    0.7574952

 ------------------------------------------------------------------------------------

*** tstop() called on wc-dhcp35d189.employee-secure.wireless.fsu.edu at Mon Jul  1 13:31:38 2024
Module time:
	user time   =       0.57 seconds =       0.01 minutes
	system time =       0.08 seconds =       0.00 minutes
	total time  =          0 seconds =       0.00 minutes
Total time:
	user time   =       0.57 seconds =       0.01 minutes
	system time =       0.08 seconds =       0.00 minutes
	total time  =          0 seconds =       0.00 minutes
   => Loading Basis Set <=

    Name: (CC-PVDZ AUX)
    Role: JKFIT
    Keyword: DF_BASIS_SCF
    atoms 1   entry O          line   221 file /Users/deprince/software/psi4/v1.9.1/psi4/install/share/psi4/basis/cc-pvdz-jkfit.gbs 
    atoms 2-3 entry H          line    51 file /Users/deprince/software/psi4/v1.9.1/psi4/install/share/psi4/basis/cc-pvdz-jkfit.gbs 

   => Loading Basis Set <=

    Name: (CC-PVDZ AUX)
    Role: RIFIT
    Keyword: DF_BASIS_CC
    atoms 1   entry O          line   235 file /Users/deprince/software/psi4/v1.9.1/psi4/install/share/psi4/basis/cc-pvdz-ri.gbs 
    atoms 2-3 entry H          line    19 file /Users/deprince/software/psi4/v1.9.1/psi4/install/share/psi4/basis/cc-pvdz-ri.gbs 


Reading options from the HILBERT block
Calling plugin hilbert.so.


Plugins that use gradients: set Da, Db, and Lagrangian for gradient theory on the wavefunction. The old way of passing these will stop working as soon as 1.8.    Molecular point group: c1
    Full point group: C2v

    Geometry (in Angstrom), charge = 0, multiplicity = 1:

       Center              X                  Y                   Z               Mass       
    ------------   -----------------  -----------------  -----------------  -----------------
         O            0.000000000000     0.000000000000    -0.068516219320    15.994914619570
         H            0.000000000000    -0.790689573744     0.543701060715     1.007825032230
         H            0.000000000000     0.790689573744     0.543701060715     1.007825032230

  -AO BASIS SET INFORMATION:
    Name                   = CC-PVDZ
    Blend                  = CC-PVDZ
    Total number of shells = 12
    Number of primitives   = 32
    Number of AO           = 25
    Number of SO           = 24
    Maximum AM             = 2
    Spherical Harmonics    = TRUE

  -Contraction Scheme:
    Atom   Type   All Primitives // Shells:
   ------ ------ --------------------------
       1     O     17s 4p 1d // 3s 2p 1d 
       2     H     4s 1p // 2s 1p 
       3     H     4s 1p // 2s 1p 

  ==> AO Basis Functions <==

    [ CC-PVDZ ]
    spherical
    ****
    O   1
    S   8 1.00
                     11720.00000000           0.00071000
                      1759.00000000           0.00547000
                       400.80000000           0.02783700
                       113.70000000           0.10480000
                        37.03000000           0.28306200
                        13.27000000           0.44871900
                         5.02500000           0.27095200
                         1.01300000           0.01545800
    S   8 1.00
                     11720.00000000          -0.00016000
                      1759.00000000          -0.00126300
                       400.80000000          -0.00626700
                       113.70000000          -0.02571600
                        37.03000000          -0.07092400
                        13.27000000          -0.16541100
                         5.02500000          -0.11695500
                         1.01300000           0.55736800
    S   1 1.00
                         0.30230000           1.00000000
    P   3 1.00
                        17.70000000           0.04301800
                         3.85400000           0.22891300
                         1.04600000           0.50872800
    P   1 1.00
                         0.27530000           1.00000000
    D   1 1.00
                         1.18500000           1.00000000
    ****
    H   2
    S   3 1.00
                        13.01000000           0.01968500
                         1.96200000           0.13797700
                         0.44460000           0.47814800
    S   1 1.00
                         0.12200000           1.00000000
    P   1 1.00
                         0.72700000           1.00000000
    ****
    H   3
    S   3 1.00
                        13.01000000           0.01968500
                         1.96200000           0.13797700
                         0.44460000           0.47814800
    S   1 1.00
                         0.12200000           1.00000000
    P   1 1.00
                         0.72700000           1.00000000
    ****



        *******************************************************
        *                                                     *
        *                                                     *
        *    Polaritonic RKS                                  *
        *                                                     *
        *                                                     *
        *******************************************************
    Molecular point group: c1
    Full point group: C2v

    Geometry (in Angstrom), charge = 0, multiplicity = 1:

       Center              X                  Y                   Z               Mass       
    ------------   -----------------  -----------------  -----------------  -----------------
         O            0.000000000000     0.000000000000    -0.068516219320    15.994914619570
         H            0.000000000000    -0.790689573744     0.543701060715     1.007825032230
         H            0.000000000000     0.790689573744     0.543701060715     1.007825032230

  -AO BASIS SET INFORMATION:
    Name                   = CC-PVDZ
    Blend                  = CC-PVDZ
    Total number of shells = 12
    Number of primitives   = 32
    Number of AO           = 25
    Number of SO           = 24
    Maximum AM             = 2
    Spherical Harmonics    = TRUE

  -Contraction Scheme:
    Atom   Type   All Primitives // Shells:
   ------ ------ --------------------------
       1     O     17s 4p 1d // 3s 2p 1d 
       2     H     4s 1p // 2s 1p 
       3     H     4s 1p // 2s 1p 

  ==> AO Basis Functions <==

    [ CC-PVDZ ]
    spherical
    ****
    O   1
    S   8 1.00
                     11720.00000000           0.00071000
                      1759.00000000           0.00547000
                       400.80000000           0.02783700
                       113.70000000           0.10480000
                        37.03000000           0.28306200
                        13.27000000           0.44871900
                         5.02500000           0.27095200
                         1.01300000           0.01545800
    S   8 1.00
                     11720.00000000          -0.00016000
                      1759.00000000          -0.00126300
                       400.80000000          -0.00626700
                       113.70000000          -0.02571600
                        37.03000000          -0.07092400
                        13.27000000          -0.16541100
                         5.02500000          -0.11695500
                         1.01300000           0.55736800
    S   1 1.00
                         0.30230000           1.00000000
    P   3 1.00
                        17.70000000           0.04301800
                         3.85400000           0.22891300
                         1.04600000           0.50872800
    P   1 1.00
                         0.27530000           1.00000000
    D   1 1.00
                         1.18500000           1.00000000
    ****
    H   2
    S   3 1.00
                        13.01000000           0.01968500
                         1.96200000           0.13797700
                         0.44460000           0.47814800
    S   1 1.00
                         0.12200000           1.00000000
    P   1 1.00
                         0.72700000           1.00000000
    ****
    H   3
    S   3 1.00
                        13.01000000           0.01968500
                         1.96200000           0.13797700
                         0.44460000           0.47814800
    S   1 1.00
                         0.12200000           1.00000000
    P   1 1.00
                         0.72700000           1.00000000
    ****

  ==> DFT Potential <==

   => LibXC <=

    Version 6.2.2
    S. Lehtola, C. Steigemann, M. J.T. Oliveira, and M. A.L. Marques.,  SoftwareX 7, 1–5 (2018) (10.1016/j.softx.2017.11.002)

   => Composite Functional: B3LYP <= 

    B3LYP Hyb-GGA Exchange-Correlation Functional

    P. J. Stephens, F. J. Devlin, C. F. Chabalowski, and M. J. Frisch.,  J. Phys. Chem. 98, 11623 (1994) (10.1021/j100096a001)

    Deriv               =              1
    GGA                 =           TRUE
    Meta                =          FALSE

    Exchange Hybrid     =           TRUE
    MP2 Hybrid          =          FALSE

   => Exchange Functionals <=

    0.0800   Slater exchange
    0.7200         Becke 88

   => Exact (HF) Exchange <=

    0.2000               HF 

   => Correlation Functionals <=

    0.1900   Vosko, Wilk & Nusair (VWN5_RPA)
    0.8100   Lee, Yang & Parr

   => LibXC Density Thresholds  <==

    XC_HYB_GGA_XC_B3LYP:  1.00E-15 

   => Molecular Quadrature <=

    Radial Scheme          =       TREUTLER
    Pruning Scheme         =           NONE
    Nuclear Scheme         =       TREUTLER

    Blocking Scheme        =         OCTREE
    BS radius alpha        =              1
    Pruning alpha          =              1
    Radial Points          =             75
    Spherical Points       =            302
    Total Points           =          66208
    Total Blocks           =            555
    Max Points             =            256
    Max Functions          =             24
    Weights Tolerance      =       1.00E-15


    No. basis functions:               24
    cholesky_tolerance:             1.000000e-12
    No. alpha electrons:                5
    No. beta electrons:                 5
    e_convergence:              1.000e-08
    d_convergence:              1.000e-08
    maxiter:                          500



    Guess energy:      -73.709704527773

    ==>  Begin SCF Iterations <==

     Iter               energy                   dE          RMS |[F,P]| 
        0     -76.413635359917      -2.703930832144       0.000117537249
        1     -76.413639964853      -0.000004604937       0.000113208559
        2     -76.413637120265       0.000002844588       0.000162995375
        3     -76.413642587747      -0.000005467482       0.000001423789
        4     -76.413642588424      -0.000000000677       0.000000115414
        5     -76.413642588427      -0.000000000003       0.000000024098
        6     -76.413642588427      -0.000000000000       0.000000001002

    SCF iterations converged!


    ==> dipole self-energy: 1/2 lambda^2 ( <mu_e^2> - <mu_e>^2 ) <==

    one-electron part;        0.008116831943
    two-electron part:       -0.003004553295
    total:                    0.005112278648


    ==> dipole variance: ( <mu_e^2> - <mu_e>^2 ) <== 

    one electron (xx):       5.252594278364
    one electron (xy):       0.000000000000
    one electron (xz):       0.000000000000
    one electron (yy):       7.586976482920
    one electron (yz):       0.000000000000
    one electron (zz):       6.493465554757

    two electron (xx):      -1.735260356299
    two electron (xy):      -0.000000000000
    two electron (xz):      -0.000000000000
    two electron (yy):      -2.970593592748
    two electron (yz):      -0.000000000000
    two electron (zz):      -2.403642636358

    total (xx):              3.517333922065
    total (xy):              0.000000000000
    total (xz):              0.000000000000
    total (yy):              4.616382890173
    total (yz):              0.000000000000
    total (zz):              4.089822918399

    * Polaritonic RKS total energy:     -76.413642588427


 #  #
 Irrep: 1
      1:  -19.126885639894954
      2:   -0.977573742773851
      3:   -0.497393711357691
      4:   -0.360542173565231
      5:   -0.283705267507177
      6:    0.046534610281025
      7:    0.120913956000799
      8:    0.538935600896150
      9:    0.584020246830439
     10:    0.905419966271292
     11:    0.918555750922910
     12:    0.997390580187287
     13:    1.214178751347595
     14:    1.226651631411115
     15:    1.424120568811492
     16:    1.602515529154583
     17:    1.632447511401003
     18:    2.030596018844597
     19:    2.064785891832266
     20:    2.887261936045254
     21:    2.928648946160711
     22:    3.080308154954234
     23:    3.430299778414906
     24:    3.694870292756256

    Molecular point group: c1
    Full point group: C2v

    Geometry (in Angstrom), charge = 0, multiplicity = 1:

       Center              X                  Y                   Z               Mass       
    ------------   -----------------  -----------------  -----------------  -----------------
         O            0.000000000000     0.000000000000    -0.068516219320    15.994914619570
         H            0.000000000000    -0.790689573744     0.543701060715     1.007825032230
         H            0.000000000000     0.790689573744     0.543701060715     1.007825032230

  -AO BASIS SET INFORMATION:
    Name                   = CC-PVDZ
    Blend                  = CC-PVDZ
    Total number of shells = 12
    Number of primitives   = 32
    Number of AO           = 25
    Number of SO           = 24
    Maximum AM             = 2
    Spherical Harmonics    = TRUE

  -Contraction Scheme:
    Atom   Type   All Primitives // Shells:
   ------ ------ --------------------------
       1     O     17s 4p 1d // 3s 2p 1d 
       2     H     4s 1p // 2s 1p 
       3     H     4s 1p // 2s 1p 

  ==> AO Basis Functions <==

    [ CC-PVDZ ]
    spherical
    ****
    O   1
    S   8 1.00
                     11720.00000000           0.00071000
                      1759.00000000           0.00547000
                       400.80000000           0.02783700
                       113.70000000           0.10480000
                        37.03000000           0.28306200
                        13.27000000           0.44871900
                         5.02500000           0.27095200
                         1.01300000           0.01545800
    S   8 1.00
                     11720.00000000          -0.00016000
                      1759.00000000          -0.00126300
                       400.80000000          -0.00626700
                       113.70000000          -0.02571600
                        37.03000000          -0.07092400
                        13.27000000          -0.16541100
                         5.02500000          -0.11695500
                         1.01300000           0.55736800
    S   1 1.00
                         0.30230000           1.00000000
    P   3 1.00
                        17.70000000           0.04301800
                         3.85400000           0.22891300
                         1.04600000           0.50872800
    P   1 1.00
                         0.27530000           1.00000000
    D   1 1.00
                         1.18500000           1.00000000
    ****
    H   2
    S   3 1.00
                        13.01000000           0.01968500
                         1.96200000           0.13797700
                         0.44460000           0.47814800
    S   1 1.00
                         0.12200000           1.00000000
    P   1 1.00
                         0.72700000           1.00000000
    ****
    H   3
    S   3 1.00
                        13.01000000           0.01968500
                         1.96200000           0.13797700
                         0.44460000           0.47814800
    S   1 1.00
                         0.12200000           1.00000000
    P   1 1.00
                         0.72700000           1.00000000
    ****



        *******************************************************
        *                                                     *
        *                                                     *
        *    Polaritonic Restricted TDDFT                     *
        *                                                     *
        *                                                     *
        *******************************************************


    No. basis functions:               24
    No. electrons:                     10
    No. states:                       192
    No. roots:                         10
    Max subspace dim:                 150
    Initial subspace dim:              50


    ==> excitation energies <==

                 Re(eig)             Im(eig)

          3.795267978107       0.000000000000
          2.752700671390       0.000000000000
          3.692474404006       0.000000000000
          2.980098111255       0.000000000000
          1.626143704240       0.000000000000
          2.324509340016       0.000000000000
          2.011122353970       0.000000000000
          1.134541957586       0.000000000000
          1.347387955045       0.000000000000
          1.249508847175       0.000000000000
          1.007122441444       0.000000000000
          0.977355501136       0.000000000000
          1.159757377285       0.000000000000
          0.874669116924       0.000000000000
          0.947367846489       0.000000000000
          0.932668766917       0.000000000000
          0.916155597652       0.000000000000
          0.744101066757       0.000000000000
          0.849476054834       0.000000000000
          0.846844011845       0.000000000000
          0.459447463289       0.000000000000
          0.791986996098       0.000000000000
          0.487190025184       0.000000000000
          0.760788408713       0.000000000000
          0.756460282838       0.000000000000
          0.655201897915       0.000000000000
          0.674259342422       0.000000000000
          0.429387752617       0.000000000000
          0.428865779037       0.000000000000
          0.434807642519       0.000000000000
          0.514445445047       0.000000000000
          0.597690937711       0.000000000000
          0.452022793617       0.000000000000
          0.469000254478       0.000000000000
          0.708065974109       0.000000000000
          0.558534878384       0.000000000000
          0.553882092356       0.000000000000
          0.686105416829       0.000000000000
          0.671089762075       0.000000000000
          0.665168621445       0.000000000000
          0.496348974366       0.000000000000
          0.603290154146       0.000000000000
          0.601955720170       0.000000000000
          0.580215873686       0.000000000000
          0.522031013427       0.000000000000
          0.525018008418       0.000000000000
          0.537604543622       0.000000000000
          0.543261331334       0.000000000000
          0.547087665610       0.000000000000
          0.549706551815       0.000000000000

info:     0
inverse eig, dimension 50
inverse eig0       7.169817824978
inverse eig1       7.369416012872
inverse eig2       9.131034947216
inverse eig3       9.885339253490
inverse eig4      11.706289809880
inverse eig5      13.530444801770
inverse eig6      16.733687145270
inverse eig7      20.195653299497
inverse eig8      21.777660927744
inverse eig9      23.462993668298
residual norm, dimension 50
residual norm0       0.106714570904 
residual norm1       0.265003608763 
residual norm2       0.077413065583 
residual norm3       0.207314502382 
residual norm4       0.217420253399 
residual norm5       0.124147753454 
residual norm6       0.250247557233 
residual norm7       0.031450765855 
residual norm8       0.126830480189 
residual norm9       0.150126671528 
check_convergence 0
eig_error, dimension 50
eig_error0             3.7952679781072152
 eig_error1             3.6924744040057718
 eig_error2             2.9800981112548253
 eig_error3             2.7527006713900923
 eig_error4             2.3245093400160184
 eig_error5             2.0111223539701637
 eig_error6             1.6261437042398208
 eig_error7             1.3473879550446812
 eig_error8             1.2495088471752733
 eig_error9             1.1597573772850260
 
 Use residual norm to control the numer of correction vectors added to new subspace
info1 0
info2 0

    ==> excitation energies <==

                 Re(eig)             Im(eig)

          3.802206551715       0.000000000000
          2.778420476111       0.000000000000
          3.715713433386       0.000000000000
         -1.274215941936       0.000000000000
          2.982854421928       0.000000000000
         -1.506657986149       0.000000000000
          2.340723128282       0.000000000000
          1.656369808686       0.000000000000
          2.019554421599       0.000000000000
         -0.522351742065       0.000000000000
         -0.978146577661       0.000000000000
         -1.003406726332       0.000000000000
         -0.336160496475       0.000000000000
         -0.563347472263       0.000000000000
         -0.198209101630       0.000000000000
          1.347744551185       0.000000000000
          1.136033218123       0.000000000000
         -0.033800973730       0.000000000000
          1.254118636720       0.000000000000
          1.167194849334       0.000000000000
          1.010293382274       0.000000000000
          0.981770613854       0.000000000000
          0.157515522378       0.000000000000
          0.876657217028       0.000000000000
          0.950446585062       0.000000000000
          0.941512544934       0.000000000000
          0.916904718695       0.000000000000
          0.754363392525       0.000000000000
          0.850235699310       0.000000000000
          0.846904754805       0.000000000000
          0.792169826017       0.000000000000
          0.757574968687       0.000000000000
          0.760834929688       0.000000000000
          0.656876185251       0.000000000000
          0.677363732536       0.000000000000
          0.465672515945       0.000000000000
          0.487257953685       0.000000000000
          0.708402192539       0.000000000000
          0.585188950497       0.000000000000
          0.606276222050       0.000000000000
          0.687985934037       0.000000000000
          0.675169737804       0.000000000000
          0.665214643219       0.000000000000
          0.431045093523       0.000000000000
          0.429458079665       0.000000000000
          0.436509749577       0.000000000000
          0.554201290216       0.000000000000
          0.452023329617       0.000000000000
          0.469114024359       0.000000000000
          0.522249063774       0.000000000000
          0.496730936781       0.000000000000
          0.606362903079       0.000000000000
          0.602549257050       0.000000000000
          0.581247179433       0.000000000000
          0.522157544390       0.000000000000
          0.525686674341       0.000000000000
          0.540318919214       0.000000000000
          0.550431315840       0.000000000000
          0.547092041448       0.000000000000
          0.543349664835       0.000000000000

info:     0
inverse eig, dimension 60
inverse eig0       7.156733762328
inverse eig1       7.323325785973
inverse eig2       9.122597401992
inverse eig3       9.793830787659
inverse eig4      11.625202345043
inverse eig5      13.473952327788
inverse eig6      16.428324071901
inverse eig7      20.190309785399
inverse eig8      21.697612333690
inverse eig9      23.313485332407
residual norm, dimension 60
residual norm0       0.010398969072 
residual norm1       0.013102898114 
residual norm2       0.003049221364 
residual norm3       0.009466240009 
residual norm4       0.007179117129 
residual norm5       0.004199741981 
residual norm6       0.010843468761 
residual norm7       0.000844222135 
residual norm8       0.004658796374 
residual norm9       0.003470569489 
check_convergence 0
eig_error, dimension 60
eig_error0             0.0069385736073713
 eig_error1             0.0232390293800808
 eig_error2             0.0027563106729964
 eig_error3             0.0257198047212333
 eig_error4             0.0162137882660107
 eig_error5             0.0084320676289358
 eig_error6             0.0302261044457992
 eig_error7             0.0003565961399039
 eig_error8             0.0046097895444590
 eig_error9             0.0074374720485866
 
 Use residual norm to control the numer of correction vectors added to new subspace
info1 0
info2 0

    ==> excitation energies <==

                 Re(eig)             Im(eig)

          3.802263966051       0.000000000000
         -2.203611875587       0.000000000000
          3.715776836581       0.000000000000
         -2.368192395042       0.000000000000
          2.778449311465       0.000000000000
         -2.203135180950       0.000000000000
          2.982858188730       0.000000000000
         -1.174512470990       0.000000000000
         -1.438070370985       0.000000000000
          2.340749028311       0.000000000000
         -1.082067908660       0.000000000000
          2.019560642241       0.000000000000
          1.656409150628       0.000000000000
         -0.491557741408       0.000000000000
         -0.579742857191       0.000000000000
         -0.546622155151       0.000000000000
         -0.320747133383       0.000000000000
         -0.384384226556       0.000000000000
         -0.386449361939       0.000000000000
         -0.355645125210       0.000000000000
         -0.290915439079       0.000000000000
         -0.049848548301       0.000000000000
          1.347744774503       0.000000000000
          1.136376073927       0.000000000000
         -0.059785084770       0.000000000000
          0.134766173295       0.000000000000
          1.254125882457       0.000000000000
          1.167200005789       0.000000000000
          1.012802158322       0.000000000000
          0.983565134636       0.000000000000
          0.158699515603       0.000000000000
          0.877213650493       0.000000000000
          0.213228295893       0.000000000000
          0.283909515431       0.000000000000
          0.950775091472       0.000000000000
          0.941630166205       0.000000000000
          0.917012397976       0.000000000000
          0.756300264194       0.000000000000
          0.850293267914       0.000000000000
          0.846915045574       0.000000000000
          0.792185124062       0.000000000000
          0.757665559755       0.000000000000
          0.760866328645       0.000000000000
          0.657301433263       0.000000000000
          0.678023558981       0.000000000000
          0.487335733869       0.000000000000
          0.466155972609       0.000000000000
          0.589496884015       0.000000000000
          0.608240489392       0.000000000000
          0.708445848520       0.000000000000
          0.688136636319       0.000000000000
          0.675416946608       0.000000000000
          0.665218665773       0.000000000000
          0.554405868213       0.000000000000
          0.524165426222       0.000000000000
          0.431435189178       0.000000000000
          0.429485106438       0.000000000000
          0.437024020609       0.000000000000
          0.452024220894       0.000000000000
          0.469140614610       0.000000000000
          0.496756843591       0.000000000000
          0.606541549235       0.000000000000
          0.602559477108       0.000000000000
          0.581312109364       0.000000000000
          0.522232919211       0.000000000000
          0.525705586974       0.000000000000
          0.550674896619       0.000000000000
          0.540392456648       0.000000000000
          0.547094208070       0.000000000000
          0.543371896179       0.000000000000

info:     0
inverse eig, dimension 70
inverse eig0       7.156625695364
inverse eig1       7.323200826300
inverse eig2       9.122585881828
inverse eig3       9.793729145143
inverse eig4      11.625073713962
inverse eig5      13.473910825377
inverse eig6      16.427933877138
inverse eig7      20.190306439915
inverse eig8      21.697486975299
inverse eig9      23.313382338101
residual norm, dimension 70
residual norm0       0.000490252783 
residual norm1       0.000408475712 
residual norm2       0.000051910791 
residual norm3       0.000256482014 
residual norm4       0.000128475373 
residual norm5       0.000080358405 
residual norm6       0.000415646672 
residual norm7       0.000010812630 
residual norm8       0.000122569181 
residual norm9       0.000060446024 
check_convergence 0
eig_error, dimension 70
eig_error0             0.0000574143365939
 eig_error1             0.0000634031955768
 eig_error2             0.0000037668019499
 eig_error3             0.0000288353538833
 eig_error4             0.0000259000289424
 eig_error5             0.0000062206422258
 eig_error6             0.0000393419421518
 eig_error7             0.0000002233179475
 eig_error8             0.0000072457374682
 eig_error9             0.0000051564557000
 
 Use residual norm to control the numer of correction vectors added to new subspace
info1 0
info2 0

    ==> excitation energies <==

                 Re(eig)             Im(eig)

          3.802264082603       0.000000000000
         -2.739751911387       0.000000000000
         -2.882087754631       0.000000000000
         -2.110916596305       0.000000000000
          3.715776887030       0.000000000000
         -2.426556799658       0.000000000000
          2.778449336380       0.000000000000
          2.982858189714       0.000000000000
         -1.664494846334       0.000000000000
         -1.628460320880       0.000000000000
          2.340749034710       0.000000000000
         -0.817106432714       0.000000000000
          2.019560643537       0.000000000000
          1.656409205459       0.000000000000
         -0.739205234725       0.000000000000
         -0.547727091225       0.000000000000
         -0.669058229769       0.000000000000
         -0.601848089411       0.000000000000
         -0.474899841699       0.000000000000
          1.347744774539       0.000000000000
         -0.486441069191       0.000000000000
         -0.477147049517       0.000000000000
         -0.453930205906       0.000000000000
         -0.243841380942       0.000000000000
          1.136512105553       0.000000000000
         -0.386834194631       0.000000000000
          1.254125886917       0.000000000000
         -0.308316326169       0.000000000000
          1.167200006926       0.000000000000
         -0.205558192042       0.000000000000
         -0.075099763465       0.000000000000
          0.073441608545       0.000000000000
          1.012968797660       0.000000000000
         -0.140624020464       0.000000000000
         -0.127793312174       0.000000000000
         -0.092393846441       0.000000000000
         -0.065692532858       0.000000000000
          0.983875752822       0.000000000000
          0.877380605117       0.000000000000
          0.163942901355       0.000000000000
          0.260837493310       0.000000000000
          0.950786423080       0.000000000000
          0.941716263667       0.000000000000
          0.239534937954       0.000000000000
          0.917019859908       0.000000000000
          0.269318284841       0.000000000000
          0.756343465641       0.000000000000
          0.850321018479       0.000000000000
          0.846924247262       0.000000000000
          0.354098652586       0.000000000000
          0.792190341912       0.000000000000
          0.757700424822       0.000000000000
          0.760867858208       0.000000000000
          0.657413803013       0.000000000000
          0.678025089967       0.000000000000
          0.466523696459       0.000000000000
          0.487382868952       0.000000000000
          0.608755804693       0.000000000000
          0.590554865993       0.000000000000
          0.708458812507       0.000000000000
          0.688155430540       0.000000000000
          0.675468107190       0.000000000000
          0.665224455689       0.000000000000
          0.554577142381       0.000000000000
          0.524183845617       0.000000000000
          0.429562599045       0.000000000000
          0.431460695909       0.000000000000
          0.437241264877       0.000000000000
          0.452030551240       0.000000000000
          0.469144098956       0.000000000000
          0.496764776953       0.000000000000
          0.606566643568       0.000000000000
          0.602603493256       0.000000000000
          0.581337074915       0.000000000000
          0.522253889609       0.000000000000
          0.525717250605       0.000000000000
          0.550780484550       0.000000000000
          0.540453472224       0.000000000000
          0.543388107414       0.000000000000
          0.547095025545       0.000000000000

info:     0
inverse eig, dimension 80
inverse eig0       7.156625475991
inverse eig1       7.323200726875
inverse eig2       9.122585878816
inverse eig3       9.793729057320
inverse eig4      11.625073682184
inverse eig5      13.473910816732
inverse eig6      16.427933333337
inverse eig7      20.190306439372
inverse eig8      21.697486898137
inverse eig9      23.313382315387
residual norm, dimension 80
residual norm0       0.000021848827 
residual norm1       0.000007877249 
residual norm2       0.000000585768 
residual norm3       0.000006692916 
residual norm4       0.000003452671 
residual norm5       0.000001032631 
residual norm6       0.000010215502 
residual norm7       0.000000154366 
residual norm8       0.000001770153 
residual norm9       0.000001198695 
check_convergence 6
eig_error, dimension 80
eig_error0             0.0000001165515697
 eig_error1             0.0000000504482114
 eig_error2             0.0000000009846111
 eig_error3             0.0000000249152525
 eig_error4             0.0000000063986993
 eig_error5             0.0000000012956773
 eig_error6             0.0000000548308197
 eig_error7             0.0000000000362110
 eig_error8             0.0000000044599677
 eig_error9             0.0000000011371699
 
 Use residual norm to control the numer of correction vectors added to new subspace
info1 0
info2 0

    ==> excitation energies <==

                 Re(eig)             Im(eig)

          3.802264082726       0.000000000000
         -2.792102998625       0.000000000000
         -2.334553313806       0.000000000000
         -2.891470134224       0.000000000000
          3.715776887052       0.000000000000
          2.778449336399       0.000000000000
         -2.426556799658       0.000000000000
          2.982858189714       0.000000000000
         -1.273771106148       0.000000000000
         -1.664494846334       0.000000000000
         -1.628460320880       0.000000000000
          2.340749034710       0.000000000000
          2.019560643537       0.000000000000
          1.656409205492       0.000000000000
         -0.819114446027       0.000000000000
         -0.636643676784       0.000000000000
         -0.739205234725       0.000000000000
         -0.561639997635       0.000000000000
         -0.669058229769       0.000000000000
          1.347744774539       0.000000000000
          1.136579410447       0.000000000000
         -0.545768329731       0.000000000000
         -0.347728144570       0.000000000000
         -0.268465739602       0.000000000000
         -0.477147049517       0.000000000000
         -0.486441069191       0.000000000000
         -0.453930205906       0.000000000000
          1.254125886918       0.000000000000
         -0.382151878758       0.000000000000
         -0.170558952672       0.000000000000
         -0.308316326169       0.000000000000
          1.167200006926       0.000000000000
          1.012983991835       0.000000000000
         -0.114398767893       0.000000000000
          0.983915118212       0.000000000000
          0.080884637710       0.000000000000
         -0.137322798892       0.000000000000
         -0.140624020464       0.000000000000
         -0.127793312174       0.000000000000
         -0.092393846441       0.000000000000
         -0.033450164910       0.000000000000
          0.170070491975       0.000000000000
          0.163942901355       0.000000000000
          0.877402579112       0.000000000000
          0.950786423080       0.000000000000
          0.941716263667       0.000000000000
          0.338034032352       0.000000000000
          0.239534937954       0.000000000000
          0.917020481103       0.000000000000
          0.272697242325       0.000000000000
          0.756417387559       0.000000000000
          0.850339937268       0.000000000000
          0.846924247262       0.000000000000
          0.354098652586       0.000000000000
          0.792190341912       0.000000000000
          0.757700424822       0.000000000000
          0.760867858208       0.000000000000
          0.657439260257       0.000000000000
          0.678050224673       0.000000000000
          0.466688760311       0.000000000000
          0.487442672878       0.000000000000
          0.708460641090       0.000000000000
          0.609224030129       0.000000000000
          0.591234458279       0.000000000000
          0.688155430540       0.000000000000
          0.675468107190       0.000000000000
          0.665224455689       0.000000000000
          0.554623683809       0.000000000000
          0.524495427402       0.000000000000
          0.429569310138       0.000000000000
          0.437250895982       0.000000000000
          0.431460695909       0.000000000000
          0.452030551240       0.000000000000
          0.469144098956       0.000000000000
          0.496764776953       0.000000000000
          0.606566643568       0.000000000000
          0.602605135986       0.000000000000
          0.581337104752       0.000000000000
          0.522253889609       0.000000000000
          0.525717250605       0.000000000000
          0.550791569880       0.000000000000
          0.540454768629       0.000000000000
          0.543388107414       0.000000000000
          0.547095025545       0.000000000000

info:     0
inverse eig, dimension 84
inverse eig0       7.156625475758
inverse eig1       7.323200726831
inverse eig2       9.122585878816
inverse eig3       9.793729057254
inverse eig4      11.625073682184
inverse eig5      13.473910816732
inverse eig6      16.427933333005
inverse eig7      20.190306439372
inverse eig8      21.697486898129
inverse eig9      23.313382315387
residual norm, dimension 84
residual norm0       0.000000485593 
residual norm1       0.000000161710 
residual norm2       0.000000585768 
residual norm3       0.000000117775 
residual norm4       0.000003452671 
residual norm5       0.000001032631 
residual norm6       0.000000169164 
residual norm7       0.000000154366 
residual norm8       0.000000967621 
residual norm9       0.000001198695 
check_convergence 10
eig_error, dimension 84
eig_error0             0.0000000001236686
 eig_error1             0.0000000000220677
 eig_error2             0.0000000000000111
 eig_error3             0.0000000000186002
 eig_error4            -0.0000000000000018
 eig_error5            -0.0000000000000009
 eig_error6             0.0000000000334714
 eig_error7            -0.0000000000000053
 eig_error8             0.0000000000004632
 eig_error9             0.0000000000000016
 energy and eigenvectors converged

    ==> QED-TDDFT energies <==

    state  type       ex energy (Eh)          energy (Eh)        photon weight       mu_x       mu_y       mu_z          f
        0    ex       0.263001195667     -76.150641392760       0.987042769130   0.000000   0.000000   0.106139   0.003950
        1    ex       0.269122724641     -76.144519863787       0.000000000000  -0.232299  -0.000000   0.000000   0.019364
        2    ex       0.335248924487     -76.078393663940       0.000000000000   0.000000  -0.000000  -0.000000   0.000000
        3    ex       0.359912987039     -76.053729601388       0.011849112030  -0.000000  -0.000000  -0.402221   0.077636
        4    ex       0.427213676123     -75.986428912304       0.000000000000  -0.000000  -0.322808   0.000000   0.059357
        5    ex       0.495157203226     -75.918485385201       0.000000000000   0.000000  -0.698699  -0.000000   0.322301
        6    ex       0.603715553309     -75.809927035118       0.000843364822  -0.000000  -0.000000   0.413268   0.137478
        7    ex       0.741980246477     -75.671662341951      -0.000000000000   0.000000   0.000000   0.000000   0.000000
        8    ex       0.797368119446     -75.616274468981       0.000000000000  -0.248437   0.000000  -0.000000   0.065619
        9    ex       0.856751194367     -75.556891394060       0.000000000000  -0.000000  -0.303515   0.000000   0.105233

    ==> QED-TDDFT significant amplitudes <==

    state       ex energy (eV)   id        value   transition  type
        0       7.156627059025   57   0.11332672    4 ->    6     X
                                190   1.00000000                  M

    state       ex energy (eV)   id        value   transition  type
        1       7.323202346950   76  -1.00000000    5 ->    6     X

    state       ex energy (eV)   id        value   transition  type
        2       9.122587897015   77  -1.00000000    5 ->    7     X

    state       ex energy (eV)   id        value   transition  type
        3       9.793731223930   39  -0.11998728    3 ->    7     X
                                 57  -1.00000000    4 ->    6     X
                                190   0.11160776                  M

    state       ex energy (eV)   id        value   transition  type
        4      11.625076254010   38  -0.14292191    3 ->    6     X
                                 58  -1.00000000    4 ->    7     X

    state       ex energy (eV)   id        value   transition  type
        5      13.473913797579   38   1.00000000    3 ->    6     X
                                 58  -0.14194435    4 ->    7     X

    state       ex energy (eV)   id        value   transition  type
        6      16.427936967373   39  -1.00000000    3 ->    7     X
                                 57   0.11211568    4 ->    6     X
                                 81   0.10919484    5 ->   11     X

    state       ex energy (eV)   id        value   transition  type
        7      20.190310906093   78  -1.00000000    5 ->    8     X

    state       ex energy (eV)   id        value   transition  type
        8      21.697491698285   79  -1.00000000    5 ->    9     X

    state       ex energy (eV)   id        value   transition  type
        9      23.313387473030   41   0.23005445    3 ->    9     X
                                 59  -1.00000000    4 ->    8     X
    Restricted QED-TDDFT EXCITATION ENERGY 1..............................................PASSED
    Restricted QED-TDDFT EXCITATION ENERGY 2..............................................PASSED
    Restricted QED-TDDFT EXCITATION ENERGY 3..............................................PASSED
    Restricted QED-TDDFT EXCITATION ENERGY 4..............................................PASSED
    Restricted QED-TDDFT EXCITATION ENERGY 5..............................................PASSED
    Restricted QED-TDDFT EXCITATION ENERGY 6..............................................PASSED
    Restricted QED-TDDFT EXCITATION ENERGY 7..............................................PASSED
    Restricted QED-TDDFT EXCITATION ENERGY 8..............................................PASSED
    Restricted QED-TDDFT EXCITATION ENERGY 9..............................................PASSED
    Restricted QED-TDDFT EXCITATION ENERGY 10.............................................PASSED

Scratch directory: /tmp/

Scratch directory: /tmp/
   => Libint2 <=

    Primary   basis highest AM E, G, H:  5, 4, 3
    Auxiliary basis highest AM E, G, H:  6, 5, 4
    Onebody   basis highest AM E, G, H:  6, 5, 4
    Solid Harmonics ordering:            Gaussian

*** tstart() called on wc-dhcp35d189.employee-secure.wireless.fsu.edu
*** at Mon Jul  1 13:31:47 2024

   => Loading Basis Set <=

    Name: CC-PVDZ
    Role: ORBITAL
    Keyword: BASIS
    atoms 1   entry O          line   198 file /Users/deprince/software/psi4/v1.9.1/psi4/install/share/psi4/basis/cc-pvdz.gbs 
    atoms 2-3 entry H          line    22 file /Users/deprince/software/psi4/v1.9.1/psi4/install/share/psi4/basis/cc-pvdz.gbs 


         ---------------------------------------------------------
                                   SCF
               by Justin Turney, Rob Parrish, Andy Simmonett
                          and Daniel G. A. Smith
                              UKS Reference
                        1 Threads,    500 MiB Core
         ---------------------------------------------------------

  ==> Geometry <==

    Molecular point group: c1
    Full point group: C2v

    Geometry (in Angstrom), charge = 0, multiplicity = 1:

       Center              X                  Y                   Z               Mass       
    ------------   -----------------  -----------------  -----------------  -----------------
         O            0.000000000000     0.000000000000    -0.068516219320    15.994914619570
         H            0.000000000000    -0.790689573744     0.543701060715     1.007825032230
         H            0.000000000000     0.790689573744     0.543701060715     1.007825032230

  Running in c1 symmetry.

  Rotational constants: A =     25.12555  B =     13.37733  C =      8.72955 [cm^-1]
  Rotational constants: A = 753245.07149  B = 401042.16706  C = 261705.25473 [MHz]
  Nuclear repulsion =    8.801465564563406

  Charge       = 0
  Multiplicity = 1
  Electrons    = 10
  Nalpha       = 5
  Nbeta        = 5

  ==> Algorithm <==

  SCF Algorithm Type is CD.
  DIIS enabled.
  MOM disabled.
  Fractional occupation disabled.
  Guess Type is SAD.
  Energy threshold   = 1.00e-08
  Density threshold  = 1.00e-08
  Integral threshold = 1.00e-12

  ==> Primary Basis <==

  Basis Set: CC-PVDZ
    Blend: CC-PVDZ
    Number of shells: 12
    Number of basis functions: 24
    Number of Cartesian functions: 25
    Spherical Harmonics?: true
    Max angular momentum: 2

  ==> DFT Potential <==

   => LibXC <=

    Version 6.2.2
    S. Lehtola, C. Steigemann, M. J.T. Oliveira, and M. A.L. Marques.,  SoftwareX 7, 1–5 (2018) (10.1016/j.softx.2017.11.002)

   => Composite Functional: B3LYP <= 

    B3LYP Hyb-GGA Exchange-Correlation Functional

    P. J. Stephens, F. J. Devlin, C. F. Chabalowski, and M. J. Frisch.,  J. Phys. Chem. 98, 11623 (1994) (10.1021/j100096a001)

    Deriv               =              1
    GGA                 =           TRUE
    Meta                =          FALSE

    Exchange Hybrid     =           TRUE
    MP2 Hybrid          =          FALSE

   => Exchange Functionals <=

    0.0800   Slater exchange
    0.7200         Becke 88

   => Exact (HF) Exchange <=

    0.2000               HF 

   => Correlation Functionals <=

    0.1900   Vosko, Wilk & Nusair (VWN5_RPA)
    0.8100   Lee, Yang & Parr

   => LibXC Density Thresholds  <==

    XC_HYB_GGA_XC_B3LYP:  1.00E-15 

   => Molecular Quadrature <=

    Radial Scheme          =       TREUTLER
    Pruning Scheme         =           NONE
    Nuclear Scheme         =       TREUTLER

    Blocking Scheme        =         OCTREE
    BS radius alpha        =              1
    Pruning alpha          =              1
    Radial Points          =             75
    Spherical Points       =            302
    Total Points           =          66208
    Total Blocks           =            555
    Max Points             =            256
    Max Functions          =             24
    Weights Tolerance      =       1.00E-15

  ==> Integral Setup <==

  ==> CDJK: Cholesky-decomposed J/K Matrices <==

    J tasked:                     Yes
    K tasked:                     Yes
    wK tasked:                     No
    OpenMP threads:                 1
    Integrals threads:              1
    Memory [MiB]:                 327
    Algorithm:                   Core
    Integral Cache:              SAVE
    Schwarz Cutoff:             1E-12
    Cholesky tolerance:      1.00E-12
    No. Cholesky vectors:         279

  Cached 100.0% of DFT collocation blocks in 0.046 [GiB].

  Minimum eigenvalue in the overlap matrix is 3.7382439197E-02.
  Reciprocal condition number of the overlap matrix is 1.0328862040E-02.
    Using symmetric orthogonalization.

  ==> Pre-Iterations <==

  SCF Guess: Superposition of Atomic Densities via on-the-fly atomic UHF (no occupation information).

   -------------------------
    Irrep   Nso     Nmo    
   -------------------------
     A         24      24 
   -------------------------
    Total      24      24
   -------------------------

  ==> Iterations <==

                        Total Energy        Delta E     RMS |[F,P]|

   @UKS iter SAD:   -76.07329144459568   -7.60733e+01   0.00000e+00 
   @UKS iter   1:   -76.27197823513031   -1.98687e-01   2.60923e-02 ADIIS/DIIS
   @UKS iter   2:   -76.10130541739871    1.70673e-01   3.79041e-02 ADIIS/DIIS
   @UKS iter   3:   -76.41791371971277   -3.16608e-01   2.10304e-03 ADIIS/DIIS
   @UKS iter   4:   -76.41875886028048   -8.45141e-04   1.26517e-04 ADIIS/DIIS
   @UKS iter   5:   -76.41876198201550   -3.12174e-06   1.77371e-05 DIIS
   @UKS iter   6:   -76.41876204418959   -6.21741e-08   8.38002e-07 DIIS
   @UKS iter   7:   -76.41876204438738   -1.97787e-10   8.66028e-08 DIIS
   @UKS iter   8:   -76.41876204438934   -1.96110e-12   1.78792e-09 DIIS
  Energy and wave function converged.


  ==> Post-Iterations <==

   Electrons on quadrature grid:
      Nalpha   =    5.0000000264 ; deviation = 2.644e-08
      Nbeta    =    5.0000000264 ; deviation = 2.644e-08
      Ntotal   =   10.0000000529 ; deviation = 5.289e-08 

   @Spin Contamination Metric:   5.329070518E-15
   @S^2 Expected:                0.000000000E+00
   @S^2 Observed:                5.329070518E-15
   @S   Expected:                0.000000000E+00
   @S   Observed:                0.000000000E+00

    Orbital Energies [Eh]
    ---------------------

    Alpha Occupied:                                                       

       1A    -19.128614     2A     -0.977901     3A     -0.498738  
       4A     -0.361782     5A     -0.285089  

    Alpha Virtual:                                                        

       6A      0.042008     7A      0.116901     8A      0.536490  
       9A      0.580512    10A      0.901964    11A      0.916856  
      12A      0.994831    13A      1.211904    14A      1.224719  
      15A      1.422457    16A      1.600416    17A      1.629596  
      18A      2.028077    19A      2.062398    20A      2.885727  
      21A      2.927256    22A      3.078274    23A      3.428489  
      24A      3.692712  

    Beta Occupied:                                                        

       1A    -19.128614     2A     -0.977901     3A     -0.498738  
       4A     -0.361782     5A     -0.285089  

    Beta Virtual:                                                         

       6A      0.042008     7A      0.116901     8A      0.536490  
       9A      0.580512    10A      0.901964    11A      0.916856  
      12A      0.994831    13A      1.211904    14A      1.224719  
      15A      1.422457    16A      1.600416    17A      1.629596  
      18A      2.028077    19A      2.062398    20A      2.885727  
      21A      2.927256    22A      3.078274    23A      3.428489  
      24A      3.692712  

    Final Occupation by Irrep:
              A 
    DOCC [     5 ]
    SOCC [     0 ]
    NA   [     5 ]
    NB   [     5 ]

  @UKS Final Energy:   -76.41876204438934

   => Energetics <=

    Nuclear Repulsion Energy =              8.8014655645634061
    One-Electron Energy =                -122.5182632364082451
    Two-Electron Energy =                  44.8449000978725820
    DFT Exchange-Correlation Energy =      -7.5468644704170824
    Empirical Dispersion Energy =           0.0000000000000000
    VV10 Nonlocal Energy =                  0.0000000000000000
    Total Energy =                        -76.4187620443893394

  UHF NO Occupations:
  HONO-2 :    3  A 2.0000000
  HONO-1 :    4  A 2.0000000
  HONO-0 :    5  A 2.0000000
  LUNO+0 :    6  A 0.0000000
  LUNO+1 :    7  A 0.0000000
  LUNO+2 :    8  A 0.0000000
  LUNO+3 :    9  A 0.0000000


Computation Completed


Properties will be evaluated at   0.000000,   0.000000,   0.000000 [a0]

Properties computed using the SCF density matrix


 Multipole Moments:

 ------------------------------------------------------------------------------------
     Multipole            Electronic (a.u.)      Nuclear  (a.u.)        Total (a.u.)
 ------------------------------------------------------------------------------------

 L = 1.  Multiply by 2.5417464519 to convert [e a0] to [Debye]
 Dipole X            :         -0.0000000            0.0000000           -0.0000000
 Dipole Y            :         -0.0000000            0.0000000           -0.0000000
 Dipole Z            :         -0.2615819            1.0190771            0.7574952
 Magnitude           :                                                    0.7574952

 ------------------------------------------------------------------------------------

*** tstop() called on wc-dhcp35d189.employee-secure.wireless.fsu.edu at Mon Jul  1 13:31:48 2024
Module time:
	user time   =       0.56 seconds =       0.01 minutes
	system time =       0.02 seconds =       0.00 minutes
	total time  =          1 seconds =       0.02 minutes
Total time:
	user time   =       9.60 seconds =       0.16 minutes
	system time =       0.59 seconds =       0.01 minutes
	total time  =         10 seconds =       0.17 minutes
   => Loading Basis Set <=

    Name: (CC-PVDZ AUX)
    Role: JKFIT
    Keyword: DF_BASIS_SCF
    atoms 1   entry O          line   221 file /Users/deprince/software/psi4/v1.9.1/psi4/install/share/psi4/basis/cc-pvdz-jkfit.gbs 
    atoms 2-3 entry H          line    51 file /Users/deprince/software/psi4/v1.9.1/psi4/install/share/psi4/basis/cc-pvdz-jkfit.gbs 

   => Loading Basis Set <=

    Name: (CC-PVDZ AUX)
    Role: RIFIT
    Keyword: DF_BASIS_CC
    atoms 1   entry O          line   235 file /Users/deprince/software/psi4/v1.9.1/psi4/install/share/psi4/basis/cc-pvdz-ri.gbs 
    atoms 2-3 entry H          line    19 file /Users/deprince/software/psi4/v1.9.1/psi4/install/share/psi4/basis/cc-pvdz-ri.gbs 


Reading options from the HILBERT block
Calling plugin hilbert.so.


Plugins that use gradients: set Da, Db, and Lagrangian for gradient theory on the wavefunction. The old way of passing these will stop working as soon as 1.8.    Molecular point group: c1
    Full point group: C2v

    Geometry (in Angstrom), charge = 0, multiplicity = 1:

       Center              X                  Y                   Z               Mass       
    ------------   -----------------  -----------------  -----------------  -----------------
         O            0.000000000000     0.000000000000    -0.068516219320    15.994914619570
         H            0.000000000000    -0.790689573744     0.543701060715     1.007825032230
         H            0.000000000000     0.790689573744     0.543701060715     1.007825032230

  -AO BASIS SET INFORMATION:
    Name                   = CC-PVDZ
    Blend                  = CC-PVDZ
    Total number of shells = 12
    Number of primitives   = 32
    Number of AO           = 25
    Number of SO           = 24
    Maximum AM             = 2
    Spherical Harmonics    = TRUE

  -Contraction Scheme:
    Atom   Type   All Primitives // Shells:
   ------ ------ --------------------------
       1     O     17s 4p 1d // 3s 2p 1d 
       2     H     4s 1p // 2s 1p 
       3     H     4s 1p // 2s 1p 

  ==> AO Basis Functions <==

    [ CC-PVDZ ]
    spherical
    ****
    O   1
    S   8 1.00
                     11720.00000000           0.00071000
                      1759.00000000           0.00547000
                       400.80000000           0.02783700
                       113.70000000           0.10480000
                        37.03000000           0.28306200
                        13.27000000           0.44871900
                         5.02500000           0.27095200
                         1.01300000           0.01545800
    S   8 1.00
                     11720.00000000          -0.00016000
                      1759.00000000          -0.00126300
                       400.80000000          -0.00626700
                       113.70000000          -0.02571600
                        37.03000000          -0.07092400
                        13.27000000          -0.16541100
                         5.02500000          -0.11695500
                         1.01300000           0.55736800
    S   1 1.00
                         0.30230000           1.00000000
    P   3 1.00
                        17.70000000           0.04301800
                         3.85400000           0.22891300
                         1.04600000           0.50872800
    P   1 1.00
                         0.27530000           1.00000000
    D   1 1.00
                         1.18500000           1.00000000
    ****
    H   2
    S   3 1.00
                        13.01000000           0.01968500
                         1.96200000           0.13797700
                         0.44460000           0.47814800
    S   1 1.00
                         0.12200000           1.00000000
    P   1 1.00
                         0.72700000           1.00000000
    ****
    H   3
    S   3 1.00
                        13.01000000           0.01968500
                         1.96200000           0.13797700
                         0.44460000           0.47814800
    S   1 1.00
                         0.12200000           1.00000000
    P   1 1.00
                         0.72700000           1.00000000
    ****



        *******************************************************
        *                                                     *
        *                                                     *
        *    Polaritonic UKS                                  *
        *                                                     *
        *                                                     *
        *******************************************************
    Molecular point group: c1
    Full point group: C2v

    Geometry (in Angstrom), charge = 0, multiplicity = 1:

       Center              X                  Y                   Z               Mass       
    ------------   -----------------  -----------------  -----------------  -----------------
         O            0.000000000000     0.000000000000    -0.068516219320    15.994914619570
         H            0.000000000000    -0.790689573744     0.543701060715     1.007825032230
         H            0.000000000000     0.790689573744     0.543701060715     1.007825032230

  -AO BASIS SET INFORMATION:
    Name                   = CC-PVDZ
    Blend                  = CC-PVDZ
    Total number of shells = 12
    Number of primitives   = 32
    Number of AO           = 25
    Number of SO           = 24
    Maximum AM             = 2
    Spherical Harmonics    = TRUE

  -Contraction Scheme:
    Atom   Type   All Primitives // Shells:
   ------ ------ --------------------------
       1     O     17s 4p 1d // 3s 2p 1d 
       2     H     4s 1p // 2s 1p 
       3     H     4s 1p // 2s 1p 

  ==> AO Basis Functions <==

    [ CC-PVDZ ]
    spherical
    ****
    O   1
    S   8 1.00
                     11720.00000000           0.00071000
                      1759.00000000           0.00547000
                       400.80000000           0.02783700
                       113.70000000           0.10480000
                        37.03000000           0.28306200
                        13.27000000           0.44871900
                         5.02500000           0.27095200
                         1.01300000           0.01545800
    S   8 1.00
                     11720.00000000          -0.00016000
                      1759.00000000          -0.00126300
                       400.80000000          -0.00626700
                       113.70000000          -0.02571600
                        37.03000000          -0.07092400
                        13.27000000          -0.16541100
                         5.02500000          -0.11695500
                         1.01300000           0.55736800
    S   1 1.00
                         0.30230000           1.00000000
    P   3 1.00
                        17.70000000           0.04301800
                         3.85400000           0.22891300
                         1.04600000           0.50872800
    P   1 1.00
                         0.27530000           1.00000000
    D   1 1.00
                         1.18500000           1.00000000
    ****
    H   2
    S   3 1.00
                        13.01000000           0.01968500
                         1.96200000           0.13797700
                         0.44460000           0.47814800
    S   1 1.00
                         0.12200000           1.00000000
    P   1 1.00
                         0.72700000           1.00000000
    ****
    H   3
    S   3 1.00
                        13.01000000           0.01968500
                         1.96200000           0.13797700
                         0.44460000           0.47814800
    S   1 1.00
                         0.12200000           1.00000000
    P   1 1.00
                         0.72700000           1.00000000
    ****

  ==> DFT Potential <==

   => LibXC <=

    Version 6.2.2
    S. Lehtola, C. Steigemann, M. J.T. Oliveira, and M. A.L. Marques.,  SoftwareX 7, 1–5 (2018) (10.1016/j.softx.2017.11.002)

   => Composite Functional: B3LYP <= 

    B3LYP Hyb-GGA Exchange-Correlation Functional

    P. J. Stephens, F. J. Devlin, C. F. Chabalowski, and M. J. Frisch.,  J. Phys. Chem. 98, 11623 (1994) (10.1021/j100096a001)

    Deriv               =              1
    GGA                 =           TRUE
    Meta                =          FALSE

    Exchange Hybrid     =           TRUE
    MP2 Hybrid          =          FALSE

   => Exchange Functionals <=

    0.0800   Slater exchange
    0.7200         Becke 88

   => Exact (HF) Exchange <=

    0.2000               HF 

   => Correlation Functionals <=

    0.1900   Vosko, Wilk & Nusair (VWN5_RPA)
    0.8100   Lee, Yang & Parr

   => LibXC Density Thresholds  <==

    XC_HYB_GGA_XC_B3LYP:  1.00E-15 

   => Molecular Quadrature <=

    Radial Scheme          =       TREUTLER
    Pruning Scheme         =           NONE
    Nuclear Scheme         =       TREUTLER

    Blocking Scheme        =         OCTREE
    BS radius alpha        =              1
    Pruning alpha          =              1
    Radial Points          =             75
    Spherical Points       =            302
    Total Points           =          66208
    Total Blocks           =            555
    Max Points             =            256
    Max Functions          =             24
    Weights Tolerance      =       1.00E-15


    No. basis functions:               24
    cholesky_tolerance:             1.000000e-12
    No. alpha electrons:                5
    No. beta electrons:                 5
    e_convergence:              1.000e-08
    d_convergence:              1.000e-08
    maxiter:                          500



    Guess energy:      -73.709704527773

    ==>  Begin SCF Iterations <==

     Iter               energy                   dE          RMS |[F,P]| 
        0     -76.413635359917      -2.703930832144       0.000117537249
        1     -76.413639964853      -0.000004604937       0.000113208559
        2     -76.413637120265       0.000002844588       0.000162995375
        3     -76.413642587747      -0.000005467482       0.000001423789
        4     -76.413642588424      -0.000000000677       0.000000115414
        5     -76.413642588427      -0.000000000003       0.000000024098
        6     -76.413642588427      -0.000000000000       0.000000001002

    SCF iterations converged!


    ==> dipole self-energy: 1/2 lambda^2 ( <mu_e^2> - <mu_e>^2 ) <==

    one-electron part;        0.008116831943
    two-electron part:       -0.003004553295
    total:                    0.005112278648


    ==> dipole variance: ( <mu_e^2> - <mu_e>^2 ) <== 

    one electron (xx):       5.252594278364
    one electron (xy):       0.000000000000
    one electron (xz):      -0.000000000000
    one electron (yy):       7.586976482920
    one electron (yz):       0.000000000000
    one electron (zz):       6.493465554757

    two electron (xx):      -1.735260356299
    two electron (xy):       0.000000000000
    two electron (xz):      -0.000000000000
    two electron (yy):      -2.970593592748
    two electron (yz):      -0.000000000000
    two electron (zz):      -2.403642636358

    total (xx):              3.517333922065
    total (xy):              0.000000000000
    total (xz):             -0.000000000000
    total (yy):              4.616382890173
    total (yz):              0.000000000000
    total (zz):              4.089822918399

    * Polaritonic UKS total energy:     -76.413642588427

 #  #
 Irrep: 1
      1:  -19.126885639894965
      2:   -0.977573742773850
      3:   -0.497393711357692
      4:   -0.360542173565230
      5:   -0.283705267507177
      6:    0.046534610281024
      7:    0.120913956000799
      8:    0.538935600896151
      9:    0.584020246830441
     10:    0.905419966271291
     11:    0.918555750922910
     12:    0.997390580187284
     13:    1.214178751347596
     14:    1.226651631411116
     15:    1.424120568811493
     16:    1.602515529154585
     17:    1.632447511401002
     18:    2.030596018844601
     19:    2.064785891832269
     20:    2.887261936045256
     21:    2.928648946160711
     22:    3.080308154954237
     23:    3.430299778414914
     24:    3.694870292756261


 #  #
 Irrep: 1
      1:  -19.126885639894954
      2:   -0.977573742773851
      3:   -0.497393711357690
      4:   -0.360542173565230
      5:   -0.283705267507176
      6:    0.046534610281025
      7:    0.120913956000800
      8:    0.538935600896151
      9:    0.584020246830441
     10:    0.905419966271292
     11:    0.918555750922909
     12:    0.997390580187285
     13:    1.214178751347595
     14:    1.226651631411116
     15:    1.424120568811493
     16:    1.602515529154585
     17:    1.632447511401003
     18:    2.030596018844600
     19:    2.064785891832270
     20:    2.887261936045256
     21:    2.928648946160710
     22:    3.080308154954236
     23:    3.430299778414916
     24:    3.694870292756262

    Molecular point group: c1
    Full point group: C2v

    Geometry (in Angstrom), charge = 0, multiplicity = 1:

       Center              X                  Y                   Z               Mass       
    ------------   -----------------  -----------------  -----------------  -----------------
         O            0.000000000000     0.000000000000    -0.068516219320    15.994914619570
         H            0.000000000000    -0.790689573744     0.543701060715     1.007825032230
[...]
         -0.735644065404       0.000000000000
         -1.160440658611       0.000000000000
          2.616457841307       0.000000000000
         -0.934979812930       0.000000000000
         -0.916952753968       0.000000000000
          2.340748809301       0.000000000000
         -0.256486925682       0.000000000000
         -0.550534385555       0.000000000000
          2.242169325880       0.000000000000
         -0.399576422682       0.000000000000
          1.654166852737       0.000000000000
          2.013092935568       0.000000000000
          0.006225101169       0.000000000000
          1.984358290881       0.000000000000
         -0.084642790680       0.000000000000
          0.030242553527       0.000000000000
          0.042920311624       0.000000000000
          0.050023095733       0.000000000000
          0.073251464515       0.000000000000
          0.163618589571       0.000000000000
          0.114373163978       0.000000000000
          0.121135589384       0.000000000000
          0.618995262200       0.000000000000
          1.371415103429       0.000000000000
          1.347462918042       0.000000000000
          1.135809383602       0.000000000000
          1.303922296996       0.000000000000
          1.278125136756       0.000000000000
          1.253037435301       0.000000000000
          1.219157423280       0.000000000000
          1.165991431564       0.000000000000
          1.011877804082       0.000000000000
          1.100372243408       0.000000000000
          1.079581599620       0.000000000000
          1.062903257212       0.000000000000
          0.981445628839       0.000000000000
          0.752092634383       0.000000000000
          0.695165877426       0.000000000000
          0.708065491299       0.000000000000
          0.876375554076       0.000000000000
          0.994341495725       0.000000000000
          0.984253104829       0.000000000000
          0.719396897699       0.000000000000
          0.735640474452       0.000000000000
          0.755529716927       0.000000000000
          0.760833875119       0.000000000000
          0.791654699971       0.000000000000
          0.774556959665       0.000000000000
          0.781172513271       0.000000000000
          0.811648671493       0.000000000000
          0.935958095257       0.000000000000
          0.949651455288       0.000000000000
          0.949865266583       0.000000000000
          0.916488467546       0.000000000000
          0.902074436682       0.000000000000
          0.846750365076       0.000000000000
          0.850021297833       0.000000000000
          0.871857009245       0.000000000000
          0.865317001000       0.000000000000

info:     0
inverse eig, dimension 70
inverse eig0       6.549750827301
inverse eig1       7.156627242281
inverse eig2       7.323203761973
inverse eig3       8.573123952214
inverse eig4       8.576199053909
inverse eig5       9.122585924722
inverse eig6       9.793731571738
inverse eig7      10.400083490895
inverse eig8      11.625074801653
inverse eig9      12.136184223872
residual norm, dimension 70
residual norm0       0.000755180656 
residual norm1       0.001503319285 
residual norm2       0.002745916717 
residual norm3       0.000463436727 
residual norm4       0.002262034589 
residual norm5       0.000219995290 
residual norm6       0.001807968692 
residual norm7       0.000696071458 
residual norm8       0.000971415582 
residual norm9       0.000663544988 
check_convergence 0
eig_error, dimension 70
eig_error0             0.0002387488886582
 eig_error1             0.0001536096071271
 eig_error2             0.0004256441486565
 eig_error3             0.0000696633610811
 eig_error4             0.0002863469390828
 eig_error5             0.0000098191693136
 eig_error6             0.0001569170370481
 eig_error7             0.0000525756069942
 eig_error8             0.0001162352305690
 eig_error9             0.0000468017486814
 
 Use residual norm to control the numer of correction vectors added to new subspace
info1 0
info2 0

    ==> excitation energies <==

                 Re(eig)             Im(eig)

         -2.426185578822       0.000000000000
          3.802264080170       0.000000000000
          4.154567331763       0.000000000000
         -2.398437194870       0.000000000000
          3.715776884125       0.000000000000
         -2.127060072603       0.000000000000
         -1.925010644664       0.000000000000
         -1.799795588475       0.000000000000
          2.778449335128       0.000000000000
         -1.083124374626       0.000000000000
         -1.521065166401       0.000000000000
          3.172896638408       0.000000000000
          3.174033235171       0.000000000000
          2.982858189712       0.000000000000
         -1.161370330859       0.000000000000
          2.616457953957       0.000000000000
         -0.939159168194       0.000000000000
          2.340749034376       0.000000000000
         -0.755093649604       0.000000000000
          2.242169445420       0.000000000000
         -0.650375293604       0.000000000000
         -0.262099522545       0.000000000000
         -0.209125669245       0.000000000000
          2.017322974612       0.000000000000
          1.654502081275       0.000000000000
          1.989252071725       0.000000000000
         -0.392770284177       0.000000000000
         -0.003040563693       0.000000000000
         -0.133862805368       0.000000000000
         -0.122417332517       0.000000000000
         -0.067742676080       0.000000000000
          0.307009839370       0.000000000000
          0.001135259429       0.000000000000
          0.036264017394       0.000000000000
          0.030303258643       0.000000000000
          0.047272530392       0.000000000000
          0.067383238400       0.000000000000
          0.122013641692       0.000000000000
          0.135676430886       0.000000000000
          0.160227166413       0.000000000000
          0.254939989012       0.000000000000
          0.270611304380       0.000000000000
          0.397926288963       0.000000000000
          1.371811173319       0.000000000000
          1.347497833701       0.000000000000
          0.621226364225       0.000000000000
          1.135863667551       0.000000000000
          1.304041433952       0.000000000000
          1.279646812695       0.000000000000
          1.253067763646       0.000000000000
          1.220180103646       0.000000000000
          1.166208137853       0.000000000000
          1.012368688147       0.000000000000
          1.100814410587       0.000000000000
          1.079582795091       0.000000000000
          1.063729806987       0.000000000000
          0.981530868392       0.000000000000
          0.752820494946       0.000000000000
          0.994497913650       0.000000000000
          0.985080789800       0.000000000000
          0.876517368471       0.000000000000
          0.695376846296       0.000000000000
          0.708080706002       0.000000000000
          0.719443070572       0.000000000000
          0.735934050006       0.000000000000
          0.937873959108       0.000000000000
          0.950005913226       0.000000000000
          0.949873167486       0.000000000000
          0.916496127986       0.000000000000
          0.902110149068       0.000000000000
          0.755731169144       0.000000000000
          0.760846002794       0.000000000000
          0.791801622997       0.000000000000
          0.774673205995       0.000000000000
          0.781543782322       0.000000000000
          0.811668963885       0.000000000000
          0.846802045903       0.000000000000
          0.850033583175       0.000000000000
          0.871982164329       0.000000000000
          0.865317532290       0.000000000000

info:     0
inverse eig, dimension 80
inverse eig0       6.549750630339
inverse eig1       7.156625480570
inverse eig2       7.323200732599
inverse eig3       8.573123840820
inverse eig4       8.576194909915
inverse eig5       9.122585878823
inverse eig6       9.793729061734
inverse eig7      10.400083043127
inverse eig8      11.625073683840
inverse eig9      12.136183576839
residual norm, dimension 80
residual norm0       0.000037477809 
residual norm1       0.000075964698 
residual norm2       0.000123697481 
residual norm3       0.000034241397 
residual norm4       0.000127894862 
residual norm5       0.000004309289 
residual norm6       0.000079310463 
residual norm7       0.000030645818 
residual norm8       0.000050351682 
residual norm9       0.000031647482 
check_convergence 0
eig_error, dimension 80
eig_error0             0.0000001249346466
 eig_error1             0.0000009359840067
 eig_error2             0.0000015370972108
 eig_error3             0.0000000412414827
 eig_error4             0.0000015331343217
 eig_error5             0.0000000150076338
 eig_error6             0.0000007120796952
 eig_error7             0.0000001126495843
 eig_error8             0.0000002250755990
 eig_error9             0.0000001195398767
 
 Use residual norm to control the numer of correction vectors added to new subspace
info1 0
info2 0

    ==> excitation energies <==

                 Re(eig)             Im(eig)

          3.802264082724       0.000000000000
          4.154567331978       0.000000000000
         -2.488582574712       0.000000000000
         -2.283005167462       0.000000000000
         -2.700064762778       0.000000000000
         -2.620139757547       0.000000000000
          3.715776887047       0.000000000000
         -2.270555038860       0.000000000000
         -2.223236073933       0.000000000000
          2.778449336398       0.000000000000
         -1.818026354858       0.000000000000
          3.172896641228       0.000000000000
          3.174033235311       0.000000000000
          2.982858189714       0.000000000000
         -1.509173037182       0.000000000000
          2.616457954082       0.000000000000
         -1.127632422462       0.000000000000
          2.340749034710       0.000000000000
         -0.937577400309       0.000000000000
          2.242169445621       0.000000000000
         -0.500661085458       0.000000000000
         -0.729732844681       0.000000000000
          2.017754560359       0.000000000000
          1.989447148038       0.000000000000
          1.655556737149       0.000000000000
         -0.434647496390       0.000000000000
         -0.222198678643       0.000000000000
         -0.361211827680       0.000000000000
         -0.323792834541       0.000000000000
         -0.293597103636       0.000000000000
         -0.144938956382       0.000000000000
         -0.046231156629       0.000000000000
         -0.145410855696       0.000000000000
          1.371938193760       0.000000000000
          1.347534851626       0.000000000000
         -0.099902010741       0.000000000000
          1.304462078811       0.000000000000
          1.279702820032       0.000000000000
          1.136070508894       0.000000000000
          0.084347950480       0.000000000000
          0.357570429068       0.000000000000
          0.013685950866       0.000000000000
          0.017620498606       0.000000000000
          0.051132391357       0.000000000000
          0.039709787518       0.000000000000
          0.031250913463       0.000000000000
          0.030300560604       0.000000000000
          0.102494137972       0.000000000000
          0.130376210334       0.000000000000
          0.160186893366       0.000000000000
          0.175252348567       0.000000000000
          0.195128450456       0.000000000000
          0.227774062898       0.000000000000
          0.237718864678       0.000000000000
          0.277377041752       0.000000000000
          0.299382494542       0.000000000000
          0.295362294390       0.000000000000
          1.253425278326       0.000000000000
          0.457905431783       0.000000000000
          1.220260409268       0.000000000000
          0.621843713999       0.000000000000
          1.166359904663       0.000000000000
          1.012379841982       0.000000000000
          0.981564978390       0.000000000000
          1.101069857410       0.000000000000
          1.079585522169       0.000000000000
          1.064684453102       0.000000000000
          0.995139633767       0.000000000000
          0.985510923563       0.000000000000
          0.876746873703       0.000000000000
          0.752853490803       0.000000000000
          0.695970670048       0.000000000000
          0.939147612004       0.000000000000
          0.950289880200       0.000000000000
          0.950227001188       0.000000000000
          0.916501512819       0.000000000000
          0.902912222122       0.000000000000
          0.708084181951       0.000000000000
          0.719619385031       0.000000000000
          0.872512944983       0.000000000000
          0.865347044826       0.000000000000
          0.850060517904       0.000000000000
          0.846802320588       0.000000000000
          0.811688043986       0.000000000000
          0.736009204217       0.000000000000
          0.791860158875       0.000000000000
          0.782495016795       0.000000000000
          0.756066482383       0.000000000000
          0.760846030390       0.000000000000
          0.774734864260       0.000000000000

info:     0
inverse eig, dimension 90
inverse eig0       6.549750630000
inverse eig1       7.156625475762
inverse eig2       7.323200726840
inverse eig3       8.573123840443
inverse eig4       8.576194902291
inverse eig5       9.122585878816
inverse eig6       9.793729057258
inverse eig7      10.400083042629
inverse eig8      11.625073682181
inverse eig9      12.136183575752
residual norm, dimension 90
residual norm0       0.000003140411 
residual norm1       0.000002217510 
residual norm2       0.000005227523 
residual norm3       0.000001617187 
residual norm4       0.000009141687 
residual norm5       0.000000108626 
residual norm6       0.000002439321 
residual norm7       0.000001031607 
residual norm8       0.000002405933 
residual norm9       0.000001161670 
check_convergence 10
eig_error, dimension 90
eig_error0             0.0000000002151852
 eig_error1             0.0000000025546982
 eig_error2             0.0000000029218747
 eig_error3             0.0000000001395430
 eig_error4             0.0000000028206544
 eig_error5             0.0000000000023119
 eig_error6             0.0000000012698806
 eig_error7             0.0000000001253673
 eig_error8             0.0000000003339524
 eig_error9             0.0000000002007909
 energy and eigenvectors converged

    ==> QED-TDDFT energies <==

    state  type       ex energy (Eh)          energy (Eh)        photon weight       mu_x       mu_y       mu_z          f
        0    ex       0.240698951321     -76.172943637106       0.000000000000  -0.000000   0.000000  -0.000000   0.000000
        1    ex       0.263001195667     -76.150641392760       0.987042767724  -0.000000  -0.000000  -0.150104   0.003950
        2    ex       0.269122724641     -76.144519863786       0.000000000000   0.328521   0.000000   0.000000   0.019364
        3    ex       0.315056562381     -76.098586026046      -0.000000000000   0.000000  -0.000000   0.000000   0.000000
        4    ex       0.315169421848     -76.098473166579       0.000000000000  -0.000000  -0.000000  -0.000000   0.000000
        5    ex       0.335248924487     -76.078393663940       0.000000000000   0.000000  -0.000000  -0.000000   0.000000
        6    ex       0.359912987039     -76.053729601388       0.011849112486  -0.000000   0.000000   0.568826   0.077636
        7    ex       0.382196090115     -76.031446498313       0.000000000000  -0.000000   0.000000   0.000000   0.000000
        8    ex       0.427213676123     -75.986428912304       0.000000000000   0.000000   0.456520  -0.000000   0.059357
        9    ex       0.445996622580     -75.967645965847       0.000000000000   0.000000   0.000000   0.000000   0.000000

    ==> QED-TDDFT significant amplitudes <==

    state       ex energy (eV)   id        value   transition  type
        0       6.549752079007   76  -1.00000000    5 ->    6    Xa
                                266  -1.00000000    5 ->    6    Xb

    state       ex energy (eV)   id        value   transition  type
        1       7.156627059029  380  -1.00000000                  M

    state       ex energy (eV)   id        value   transition  type
        2       7.323202346959   76  -1.00000000    5 ->    6    Xa
                                266   1.00000000    5 ->    6    Xb

    state       ex energy (eV)   id        value   transition  type
        3       8.573125737083   77   1.00000000    5 ->    7    Xa
                                267   1.00000000    5 ->    7    Xb

    state       ex energy (eV)   id        value   transition  type
        4       8.576196799611   57  -1.00000000    4 ->    6    Xa
                                247   1.00000000    4 ->    6    Xb

    state       ex energy (eV)   id        value   transition  type
        5       9.122587897015   77   1.00000000    5 ->    7    Xa
                                267  -1.00000000    5 ->    7    Xb

    state       ex energy (eV)   id        value   transition  type
        6       9.793731223934   39  -0.11998729    3 ->    7    Xa
                                 57   1.00000000    4 ->    6    Xa
                                229   0.11998729    3 ->    7    Xb
                                247   1.00000000    4 ->    6    Xb
                                380  -0.15783720                  M

    state       ex energy (eV)   id        value   transition  type
        7      10.400085343449   38  -0.26421605    3 ->    6    Xa
                                 58  -1.00000000    4 ->    7    Xa
                                 59   0.11443488    4 ->    8    Xa
                                228  -0.26421603    3 ->    6    Xb
                                248   1.00000000    4 ->    7    Xb
                                249   0.11443488    4 ->    8    Xb

    state       ex energy (eV)   id        value   transition  type
        8      11.625076254007   38  -0.14292188    3 ->    6    Xa
                                 58   1.00000000    4 ->    7    Xa
                                228   0.14292188    3 ->    6    Xb
                                248   1.00000000    4 ->    7    Xb

    state       ex energy (eV)   id        value   transition  type
        9      12.136186260652   38   1.00000000    3 ->    6    Xa
                                 58  -0.26887297    4 ->    7    Xa
                                228   0.99999999    3 ->    6    Xb
                                248   0.26887298    4 ->    7    Xb
    Unrestricted QED-TDDFT EXCITATION ENERGY 1............................................PASSED
    Unrestricted QED-TDDFT EXCITATION ENERGY 2............................................PASSED
    Unrestricted QED-TDDFT EXCITATION ENERGY 3............................................PASSED
    Unrestricted QED-TDDFT EXCITATION ENERGY 4............................................PASSED
    Unrestricted QED-TDDFT EXCITATION ENERGY 5............................................PASSED
    Unrestricted QED-TDDFT EXCITATION ENERGY 6............................................PASSED
    Unrestricted QED-TDDFT EXCITATION ENERGY 7............................................PASSED
    Unrestricted QED-TDDFT EXCITATION ENERGY 8............................................PASSED
    Unrestricted QED-TDDFT EXCITATION ENERGY 9............................................PASSED
    Unrestricted QED-TDDFT EXCITATION ENERGY 10...........................................PASSED

    Psi4 stopped on: Monday, 01 July 2024 01:32PM
    Psi4 wall time for execution: 0:00:27.17

*** Psi4 exiting successfully. Buy a developer a beer!
