
    -----------------------------------------------------------------------
          Psi4: An Open-Source Ab Initio Electronic Structure Package
                               Psi4 1.4a2.dev397 

                         Git: Rev {master} b3df9b2 dirty


    R. M. Parrish, L. A. Burns, D. G. A. Smith, A. C. Simmonett,
    A. E. DePrince III, E. G. Hohenstein, U. Bozkaya, A. Yu. Sokolov,
    R. Di Remigio, R. M. Richard, J. F. Gonthier, A. M. James,
    H. R. McAlexander, A. Kumar, M. Saitow, X. Wang, B. P. Pritchard,
    P. Verma, H. F. Schaefer III, K. Patkowski, R. A. King, E. F. Valeev,
    F. A. Evangelista, J. M. Turney, T. D. Crawford, and C. D. Sherrill,
    J. Chem. Theory Comput. 13(7) pp 3185--3197 (2017).
    (doi: 10.1021/acs.jctc.7b00174)


                         Additional Contributions by
    P. Kraus, H. Kruse, M. H. Lechner, M. C. Schieber, R. A. Shaw,
    A. Alenaizan, R. Galvelis, Z. L. Glick, S. Lehtola, and J. P. Misiewicz

    -----------------------------------------------------------------------


    Psi4 started on: Friday, 10 July 2020 11:35AM

    Process ID: 68082
    Host:       illegally-used-at.fsu
    PSIDATADIR: /Users/deprince/edeprince3/psi4/install/master/share/psi4
    Memory:     500.0 MiB
    Threads:    1
    
  ==> Input File <==

--------------------------------------------------------------------------

# job description:
print('        H2O / 6-31g / pCCD, scf_type = DF, rOH = 1.0 A, aHOH = 104.5')

sys.path.insert(0, '../../..')
import hilbert

molecule h2o {
0 1
O
H 1 1.0
H 1 1.0 2 104.5
symmetry c1
}

set {
  reference rhf
  basis 6-31g
  scf_type df

  e_convergence 1e-10
  r_convergence 1e-8
  orbopt_gradient_convergence 1e-6
  orbopt_energy_convergence 1e-8

  localize_orbitals true
  noisy_orbitals true
  optimize_orbitals true
  orbopt_maxiter 1
  maxiter 10000

}

en = energy('pccd')

ref_scf  = -75.98014193580194 # TEST
ref_pccd = -76.052839394329   # TEST

compare_values(ref_scf, variable("SCF TOTAL ENERGY"), 8, "SCF total energy") # TEST
compare_values(ref_pccd, variable("CURRENT ENERGY"), 5, "pCCD total energy") # TEST
--------------------------------------------------------------------------

Scratch directory: /tmp/

*** tstart() called on illegally-used-at.fsu
*** at Fri Jul 10 11:35:52 2020

   => Loading Basis Set <=

    Name: 6-31G
    Role: ORBITAL
    Keyword: BASIS
    atoms 1   entry O          line   117 file /Users/deprince/edeprince3/psi4/install/master/share/psi4/basis/6-31g.gbs 
    atoms 2-3 entry H          line    26 file /Users/deprince/edeprince3/psi4/install/master/share/psi4/basis/6-31g.gbs 


         ---------------------------------------------------------
                                   SCF
               by Justin Turney, Rob Parrish, Andy Simmonett
                          and Daniel G. A. Smith
                              RHF Reference
                        1 Threads,    500 MiB Core
         ---------------------------------------------------------

  ==> Geometry <==

    Molecular point group: c1
    Full point group: C2v

    Geometry (in Angstrom), charge = 0, multiplicity = 1:

       Center              X                  Y                   Z               Mass       
    ------------   -----------------  -----------------  -----------------  -----------------
         O            0.000000000000     0.000000000000    -0.068516219320    15.994914619570
         H            0.000000000000    -0.790689573744     0.543701060715     1.007825032230
         H            0.000000000000     0.790689573744     0.543701060715     1.007825032230

  Running in c1 symmetry.

  Rotational constants: A =     25.12555  B =     13.37733  C =      8.72955 [cm^-1]
  Rotational constants: A = 753245.07149  B = 401042.16706  C = 261705.25473 [MHz]
  Nuclear repulsion =    8.801465564567374

  Charge       = 0
  Multiplicity = 1
  Electrons    = 10
  Nalpha       = 5
  Nbeta        = 5

  ==> Algorithm <==

  SCF Algorithm Type is DF.
  DIIS enabled.
  MOM disabled.
  Fractional occupation disabled.
  Guess Type is SAD.
  Energy threshold   = 1.00e-10
  Density threshold  = 1.00e-08
  Integral threshold = 0.00e+00

  ==> Primary Basis <==

  Basis Set: 6-31G
    Blend: 6-31G
    Number of shells: 9
    Number of basis function: 13
    Number of Cartesian functions: 13
    Spherical Harmonics?: false
    Max angular momentum: 1

   => Loading Basis Set <=

    Name: (6-31G AUX)
    Role: JKFIT
    Keyword: DF_BASIS_SCF
    atoms 1   entry O          line   221 file /Users/deprince/edeprince3/psi4/install/master/share/psi4/basis/cc-pvdz-jkfit.gbs 
    atoms 2-3 entry H          line    51 file /Users/deprince/edeprince3/psi4/install/master/share/psi4/basis/cc-pvdz-jkfit.gbs 

  ==> Pre-Iterations <==

   -------------------------------------------------------
    Irrep   Nso     Nmo     Nalpha   Nbeta   Ndocc  Nsocc
   -------------------------------------------------------
     A         13      13       0       0       0       0
   -------------------------------------------------------
    Total      13      13       5       5       5       0
   -------------------------------------------------------

  ==> Integral Setup <==

  ==> DiskDFJK: Density-Fitted J/K Matrices <==

    J tasked:                  Yes
    K tasked:                  Yes
    wK tasked:                  No
    OpenMP threads:              1
    Integrals threads:           1
    Memory [MiB]:              375
    Algorithm:                Core
    Integral Cache:           SAVE
    Schwarz Cutoff:          1E-12
    Fitting Condition:       1E-10

   => Auxiliary Basis Set <=

  Basis Set: (6-31G AUX)
    Blend: CC-PVDZ-JKFIT
    Number of shells: 42
    Number of basis function: 131
    Number of Cartesian functions: 131
    Spherical Harmonics?: false
    Max angular momentum: 3

  Minimum eigenvalue in the overlap matrix is 7.3923788795E-02.
  Reciprocal condition number of the overlap matrix is 2.1980826342E-02.
    Using symmetric orthogonalization.
  SCF Guess: Superposition of Atomic Densities via on-the-fly atomic UHF.

  ==> Iterations <==

                           Total Energy        Delta E     RMS |[F,P]|

   @DF-RHF iter SAD:   -75.45941871343828   -7.54594e+01   0.00000e+00 
   @DF-RHF iter   1:   -75.90434666105367   -4.44928e-01   3.09953e-02 DIIS
   @DF-RHF iter   2:   -75.95857164768282   -5.42250e-02   1.90214e-02 DIIS
   @DF-RHF iter   3:   -75.97973621451969   -2.11646e-02   1.56674e-03 DIIS
   @DF-RHF iter   4:   -75.98012651826689   -3.90304e-04   3.11867e-04 DIIS
   @DF-RHF iter   5:   -75.98014154101817   -1.50228e-05   4.14320e-05 DIIS
   @DF-RHF iter   6:   -75.98014191790431   -3.76886e-07   8.27072e-06 DIIS
   @DF-RHF iter   7:   -75.98014193491713   -1.70128e-08   1.79874e-06 DIIS
   @DF-RHF iter   8:   -75.98014193578133   -8.64205e-10   3.33255e-07 DIIS
   @DF-RHF iter   9:   -75.98014193580164   -2.03073e-11   3.10076e-08 DIIS
   @DF-RHF iter  10:   -75.98014193580194   -2.98428e-13   2.58167e-09 DIIS
  Energy and wave function converged.


  ==> Post-Iterations <==

    Orbital Energies [Eh]
    ---------------------

    Doubly Occupied:                                                      

       1A    -20.568888     2A     -1.334712     3A     -0.686875  
       4A     -0.554298     5A     -0.499284  

    Virtual:                                                              

       6A      0.193417     7A      0.287599     8A      1.041506  
       9A      1.130380    10A      1.164432    11A      1.220999  
      12A      1.368964    13A      1.693510  

    Final Occupation by Irrep:
              A 
    DOCC [     5 ]

  @DF-RHF Final Energy:   -75.98014193580194

   => Energetics <=

    Nuclear Repulsion Energy =              8.8014655645673745
    One-Electron Energy =                -122.2751012239349109
    Two-Electron Energy =                  37.4934937235655994
    Total Energy =                        -75.9801419358019245

Computation Completed


Properties will be evaluated at   0.000000,   0.000000,   0.000000 [a0]

Properties computed using the SCF density matrix

  Nuclear Dipole Moment: [e a0]
     X:     0.0000      Y:     0.0000      Z:     1.0191

  Electronic Dipole Moment: [e a0]
     X:    -0.0000      Y:     0.0000      Z:     0.0213

  Dipole Moment: [e a0]
     X:    -0.0000      Y:     0.0000      Z:     1.0404     Total:     1.0404

  Dipole Moment: [D]
     X:    -0.0000      Y:     0.0000      Z:     2.6444     Total:     2.6444


*** tstop() called on illegally-used-at.fsu at Fri Jul 10 11:35:52 2020
Module time:
	user time   =       0.32 seconds =       0.01 minutes
	system time =       0.01 seconds =       0.00 minutes
	total time  =          0 seconds =       0.00 minutes
Total time:
	user time   =       0.32 seconds =       0.01 minutes
	system time =       0.01 seconds =       0.00 minutes
	total time  =          0 seconds =       0.00 minutes
 MINTS: Wrapper to libmints.
   by Justin Turney

   Calculation information:
      Number of threads:                 1
      Number of atoms:                   3
      Number of AO shells:               9
      Number of SO shells:               9
      Number of primitives:             22
      Number of atomic orbitals:        13
      Number of basis functions:        13

      Number of irreps:                  1
      Integral cutoff                 0.00e+00
      Number of functions per irrep: [  13 ]

 OEINTS: Overlap, kinetic, potential, dipole, and quadrupole integrals
         stored in file 35.

      Computing two-electron integrals...done
      Computed 2263 non-zero two-electron integrals.
        Stored in file 33.


Reading options from the HILBERT block
Calling plugin hilbert.so.


  ==> Pipek-Mezey Localizer <==

    Convergence =   1.000E-08
    Maxiter     =          50

    Iteration                   Metric       Residual
    @PM    0   4.0403577598919860E+00              -
    @PM    1   4.2293811168321778E+00   4.678382E-02
    @PM    2   4.2298843280346654E+00   1.189799E-04
    @PM    3   4.2298866055815463E+00   5.384419E-07
    @PM    4   4.2298866262938315E+00   4.896653E-09

    PM Localizer converged.



        ***************************************************
        *                                                 *
        *    pp2RDM                                       *
        *                                                 *
        *    pair parametric 2RDM                         *
        *                                                 *
        ***************************************************

    ==> Convergence parameters <==

        r_convergence:                  1.000e-08
        e_convergence:                  1.000e-10
        maximum iterations:                 10000

    ==> Orbital optimization parameters <==

        localize orbitals?                    yes
        optimize orbitals?                    yes
        g_convergence:                  1.000e-06
        e_convergence:                  1.000e-08
        maximum iterations:                     1
        exact diagonal Hessian:              true
        number of DIIS vectors:                 0
        print iteration info:               false

    ==> Transform three-electron integrals <==

        Time for integral transformation:     0.01 s

    Molecular point group: c1
    Full point group: C2v

    Geometry (in Angstrom), charge = 0, multiplicity = 1:

       Center              X                  Y                   Z               Mass       
    ------------   -----------------  -----------------  -----------------  -----------------
         O            0.000000000000     0.000000000000    -0.068516219320    15.994914619570
         H            0.000000000000    -0.790689573744     0.543701060715     1.007825032230
         H            0.000000000000     0.790689573744     0.543701060715     1.007825032230

  -AO BASIS SET INFORMATION:
    Name                   = 6-31G
    Blend                  = 6-31G
    Total number of shells = 9
    Number of primitives   = 22
    Number of AO           = 13
    Number of SO           = 13
    Maximum AM             = 1
    Spherical Harmonics    = FALSE

  -Contraction Scheme:
    Atom   Type   All Primitives // Shells:
   ------ ------ --------------------------
       1     O     10s 4p // 3s 2p 
       2     H     4s // 2s 
       3     H     4s // 2s 

  ==> AO Basis Functions <==

    [ 6-31G ]
    cartesian
    ****
    O   1
    S   6 1.00
                      5484.67170000           0.00183110
                       825.23495000           0.01395010
                       188.04696000           0.06844510
                        52.96450000           0.23271430
                        16.89757000           0.47019300
                         5.79963530           0.35852090
    S   3 1.00
                        15.53961600          -0.11077750
                         3.59993360          -0.14802630
                         1.01376180           1.13076700
    P   3 1.00
                        15.53961600           0.07087430
                         3.59993360           0.33975280
                         1.01376180           0.72715860
    S   1 1.00
                         0.27000580           1.00000000
    P   1 1.00
                         0.27000580           1.00000000
    ****
    H   2
    S   3 1.00
                        18.73113700           0.03349460
                         2.82539370           0.23472695
                         0.64012170           0.81375733
    S   1 1.00
                         0.16127780           1.00000000
    ****
    H   3
    S   3 1.00
                        18.73113700           0.03349460
                         2.82539370           0.23472695
                         0.64012170           0.81375733
    S   1 1.00
                         0.16127780           1.00000000
    ****

    ==> Begin oo-pCCD iterations <==


    ==> Begin pCCD iterations <==

        iter          energy       d(Energy)          |d(T)|
           0   -0.0272064573    0.0272064573    0.0895983732
           1   -0.0307271893    0.0035207320    0.0148083957
           2   -0.0316961954    0.0009690061    0.0037469289
           3   -0.0317117786    0.0000155831    0.0002879656
           4   -0.0317118669    0.0000000883    0.0000196042
           5   -0.0317118468   -0.0000000201    0.0000015713
           6   -0.0317118497    0.0000000029    0.0000002458
           7   -0.0317118496   -0.0000000000    0.0000000316
           8   -0.0317118497    0.0000000000    0.0000000049

    ==> Begin z iterations <==

        iter          energy       d(Energy)          |d(Z)|
           0   -0.0272064573    0.0272064573    0.0895983732
           1   -0.0306248691    0.0034184118    0.0143241131
           2   -0.0315333716    0.0009085025    0.0035309288
           3   -0.0315480653    0.0000146937    0.0002707112
           4   -0.0315480260   -0.0000000393    0.0000181154
           5   -0.0315480204   -0.0000000056    0.0000013951
           6   -0.0315480238    0.0000000034    0.0000001984
           7   -0.0315480236   -0.0000000002    0.0000000260
           8   -0.0315480236    0.0000000000    0.0000000045

        pCCD one-electron energy =    -122.179871592846
        pCCD two-electron energy =      37.367812651881
        * pCCD total energy      =     -76.010593376398

    ==> Orbital Optimization <==

        p2RDM one-electron energy =    -122.187230875002
        p2RDM two-electron energy =      37.370804964799
        * p2RDM total energy      =     -76.014960345636

    ==> oo-pCCD summary <==

       iter   iter(CI)   iter(oo)           E(CI)           E(oo)            |dE|
          0         9           1  -76.0105933764  -76.0149603456   76.0149603456

    ==> Begin pCCD iterations <==

        iter          energy       d(Energy)          |d(T)|
           0   -0.0368864341    0.0368864341    0.0269575829
           1   -0.0376455715    0.0007591374    0.0056506378
           2   -0.0378547024    0.0002091309    0.0013286189
           3   -0.0378543439   -0.0000003585    0.0001028898
           4   -0.0378542656   -0.0000000784    0.0000181031
           5   -0.0378543290    0.0000000635    0.0000032225
           6   -0.0378543395    0.0000000105    0.0000003105
           7   -0.0378543395   -0.0000000000    0.0000000387
           8   -0.0378543410    0.0000000015    0.0000000026
           9   -0.0378543393   -0.0000000017    0.0000000206
          10   -0.0378543393    0.0000000000    0.0000000003

    ==> Begin z iterations <==

        iter          energy       d(Energy)          |d(Z)|
           0   -0.0366819771    0.0366819771    0.0267727425
           1   -0.0374206714    0.0007386943    0.0055198835
           2   -0.0376210725    0.0002004011    0.0012831978
           3   -0.0376207806   -0.0000002919    0.0001004097
           4   -0.0376206768   -0.0000001038    0.0000179646
           5   -0.0376207454    0.0000000687    0.0000031125
           6   -0.0376207545    0.0000000091    0.0000002939
           7   -0.0376207543   -0.0000000002    0.0000000368
           8   -0.0376207542   -0.0000000001    0.0000000025
           9   -0.0376207541   -0.0000000000    0.0000000009

        pCCD one-electron energy =    -122.175142070277
        pCCD two-electron energy =      37.355897967300
        * pCCD total energy      =     -76.017778538410

    ==> Orbital Optimization <==

        p2RDM one-electron energy =    -122.166962625875
        p2RDM two-electron energy =      37.342098086939
        * p2RDM total energy      =     -76.023398974369

    ==> oo-pCCD summary <==

       iter   iter(CI)   iter(oo)           E(CI)           E(oo)            |dE|
          1        11           2  -76.0177785384  -76.0233989744    0.0084386287

    ==> Begin pCCD iterations <==

        iter          energy       d(Energy)          |d(T)|
           0   -0.0519516557    0.0519516557    0.0560711286
           1   -0.0556926203    0.0037409646    0.0169636998
           2   -0.0575194060    0.0018267857    0.0055350722
           3   -0.0575364527    0.0000170467    0.0001601372
           4   -0.0575370469    0.0000005942    0.0000243251
           5   -0.0575369379   -0.0000001090    0.0000041353
           6   -0.0575369271   -0.0000000108    0.0000005147
           7   -0.0575369285    0.0000000014    0.0000000992
           8   -0.0575369285    0.0000000000    0.0000000122
           9   -0.0575369285   -0.0000000000    0.0000000122
          10   -0.0575369285   -0.0000000000    0.0000000028

    ==> Begin z iterations <==

        iter          energy       d(Energy)          |d(Z)|
           0   -0.0514221358    0.0514221358    0.0553934403
           1   -0.0549253438    0.0035032080    0.0160581672
           2   -0.0565433126    0.0016179688    0.0050583028
           3   -0.0565580912    0.0000147786    0.0001382416
           4   -0.0565581288    0.0000000376    0.0000209588
           5   -0.0565581209   -0.0000000079    0.0000036147
           6   -0.0565581127   -0.0000000082    0.0000004582
           7   -0.0565581122   -0.0000000006    0.0000000840
           8   -0.0565581124    0.0000000003    0.0000000111
           9   -0.0565581125    0.0000000000    0.0000000039

        pCCD one-electron energy =    -122.160895522894
        pCCD two-electron energy =      37.321912449499
        * pCCD total energy      =     -76.037517508827

    ==> Orbital Optimization <==

        p2RDM one-electron energy =    -122.201854951254
        p2RDM two-electron energy =      37.353826056139
        * p2RDM total energy      =     -76.046563330547

    ==> oo-pCCD summary <==

       iter   iter(CI)   iter(oo)           E(CI)           E(oo)            |dE|
          2        11           3  -76.0375175088  -76.0465633305    0.0231643562

    ==> Begin pCCD iterations <==

        iter          energy       d(Energy)          |d(T)|
           0   -0.0668287828    0.0668287828    0.0228048891
           1   -0.0683793052    0.0015505224    0.0057641841
           2   -0.0690460102    0.0006667051    0.0017390173
           3   -0.0690733057    0.0000272954    0.0001234538
           4   -0.0690733343    0.0000000286    0.0000064639
           5   -0.0690732912   -0.0000000431    0.0000012528
           6   -0.0690732950    0.0000000038    0.0000000561
           7   -0.0690732949   -0.0000000001    0.0000000047

    ==> Begin z iterations <==

        iter          energy       d(Energy)          |d(Z)|
           0   -0.0654423038    0.0654423038    0.0220840618
           1   -0.0668311638    0.0013888600    0.0052839171
           2   -0.0673874121    0.0005562483    0.0015153271
           3   -0.0674094520    0.0000220399    0.0001084543
           4   -0.0674092240   -0.0000002280    0.0000065781
           5   -0.0674091591   -0.0000000650    0.0000011903
           6   -0.0674091587   -0.0000000003    0.0000000508
           7   -0.0674091587   -0.0000000001    0.0000000059

        pCCD one-electron energy =    -122.190636977170
        pCCD two-electron energy =      37.340360135472
        * pCCD total energy      =     -76.048811277131

    ==> Orbital Optimization <==

        p2RDM one-electron energy =    -122.162763853655
        p2RDM two-electron energy =      37.311927092131
        * p2RDM total energy      =     -76.049371196957

    ==> oo-pCCD summary <==

       iter   iter(CI)   iter(oo)           E(CI)           E(oo)            |dE|
          3         8           4  -76.0488112771  -76.0493711970    0.0028078664

    ==> Begin pCCD iterations <==

        iter          energy       d(Energy)          |d(T)|
           0   -0.0695042157    0.0695042157    0.0034478326
           1   -0.0697105160    0.0002063003    0.0007509071
           2   -0.0697986203    0.0000881043    0.0002262351
           3   -0.0698031757    0.0000045553    0.0000178586
           4   -0.0698031822    0.0000000065    0.0000010002
           5   -0.0698031815   -0.0000000007    0.0000001955
           6   -0.0698031822    0.0000000007    0.0000000234
           7   -0.0698031823    0.0000000001    0.0000000019
           8   -0.0698031823    0.0000000000    0.0000000001

    ==> Begin z iterations <==

        iter          energy       d(Energy)          |d(Z)|
           0   -0.0678009989    0.0678009989    0.0033362928
           1   -0.0679823917    0.0001813928    0.0006761780
           2   -0.0680541575    0.0000717658    0.0001918012
           3   -0.0680579808    0.0000038233    0.0000155623
           4   -0.0680579765   -0.0000000043    0.0000008962
           5   -0.0680579730   -0.0000000035    0.0000001768
           6   -0.0680579732    0.0000000002    0.0000000209
           7   -0.0680579733    0.0000000001    0.0000000018

        pCCD one-electron energy =    -122.161043614208
        pCCD two-electron energy =      37.310139284253
        * pCCD total energy      =     -76.049438765388

    ==> Orbital Optimization <==

        p2RDM one-electron energy =    -122.174948157567
        p2RDM two-electron energy =      37.323737237386
        * p2RDM total energy      =     -76.049745355614

    ==> oo-pCCD summary <==

       iter   iter(CI)   iter(oo)           E(CI)           E(oo)            |dE|
          4         9           5  -76.0494387654  -76.0497453556    0.0003741587

    ==> Begin pCCD iterations <==

        iter          energy       d(Energy)          |d(T)|
           0   -0.0699468309    0.0699468309    0.0012912399
           1   -0.0700479901    0.0001011592    0.0003681535
           2   -0.0700949718    0.0000469816    0.0001202723
           3   -0.0700956693    0.0000006976    0.0000053278
           4   -0.0700956682   -0.0000000011    0.0000005068
           5   -0.0700956651   -0.0000000031    0.0000000667
           6   -0.0700956648   -0.0000000003    0.0000000065
           7   -0.0700956648   -0.0000000000    0.0000000008

    ==> Begin z iterations <==

        iter          energy       d(Energy)          |d(Z)|
           0   -0.0681774291    0.0681774291    0.0012139895
           1   -0.0682654482    0.0000880190    0.0003262802
           2   -0.0683033488    0.0000379007    0.0001017334
           3   -0.0683039016    0.0000005528    0.0000049119
           4   -0.0683038915   -0.0000000101    0.0000005131
           5   -0.0683038878   -0.0000000037    0.0000000623
           6   -0.0683038876   -0.0000000003    0.0000000055
           7   -0.0683038875   -0.0000000000    0.0000000006

        pCCD one-electron energy =    -122.174143816858
        pCCD two-electron energy =      37.322915056207
        * pCCD total energy      =     -76.049763196084

    ==> Orbital Optimization <==

        p2RDM one-electron energy =    -122.167590616752
        p2RDM two-electron energy =      37.316299213640
        * p2RDM total energy      =     -76.049825838545

    ==> oo-pCCD summary <==

       iter   iter(CI)   iter(oo)           E(CI)           E(oo)            |dE|
          5         8           6  -76.0497631961  -76.0498258385    0.0000804829

    ==> Begin pCCD iterations <==

        iter          energy       d(Energy)          |d(T)|
           0   -0.0701905840    0.0701905840    0.0006434178
           1   -0.0702286825    0.0000380985    0.0001424123
           2   -0.0702440594    0.0000153769    0.0000421874
           3   -0.0702449779    0.0000009185    0.0000037733
           4   -0.0702449855    0.0000000076    0.0000001857
           5   -0.0702449851   -0.0000000004    0.0000000335
           6   -0.0702449850   -0.0000000000    0.0000000053

    ==> Begin z iterations <==

        iter          energy       d(Energy)          |d(Z)|
           0   -0.0683899845    0.0683899845    0.0006179016
           1   -0.0684233146    0.0000333301    0.0001278854
           2   -0.0684356772    0.0000123626    0.0000356454
           3   -0.0684364157    0.0000007385    0.0000033066
           4   -0.0684364177    0.0000000020    0.0000001918
           5   -0.0684364157   -0.0000000020    0.0000000359
           6   -0.0684364155   -0.0000000002    0.0000000049
           7   -0.0684364154   -0.0000000000    0.0000000004

        pCCD one-electron energy =    -122.167219562572
        pCCD two-electron energy =      37.315922595262
        * pCCD total energy      =     -76.049831402742

    ==> Orbital Optimization <==

        p2RDM one-electron energy =    -122.161673980287
        p2RDM two-electron energy =      37.310084303763
        * p2RDM total energy      =     -76.050124111956

    ==> oo-pCCD summary <==

       iter   iter(CI)   iter(oo)           E(CI)           E(oo)            |dE|
          6         7           7  -76.0498314027  -76.0501241120    0.0002982734

    ==> Begin pCCD iterations <==

        iter          energy       d(Energy)          |d(T)|
           0   -0.0707863379    0.0707863379    0.0075201822
           1   -0.0707290438   -0.0000572941    0.0014378303
           2   -0.0706995109   -0.0000295329    0.0003437260
           3   -0.0706930304   -0.0000064804    0.0000290676
           4   -0.0706919054   -0.0000011250    0.0000032592
           5   -0.0706918309   -0.0000000745    0.0000002035
           6   -0.0706918262   -0.0000000047    0.0000000158
           7   -0.0706918257   -0.0000000005    0.0000000024
           8   -0.0706918257   -0.0000000000    0.0000000003

    ==> Begin z iterations <==

        iter          energy       d(Energy)          |d(Z)|
           0   -0.0690030779    0.0690030779    0.0074472197
           1   -0.0689625678   -0.0000405101    0.0013992116
           2   -0.0689424087   -0.0000201592    0.0003249764
           3   -0.0689380976   -0.0000043110    0.0000246022
           4   -0.0689373160   -0.0000007816    0.0000025782
           5   -0.0689372540   -0.0000000620    0.0000001738
           6   -0.0689372497   -0.0000000043    0.0000000129
           7   -0.0689372492   -0.0000000005    0.0000000019
           8   -0.0689372492   -0.0000000000    0.0000000002

        pCCD one-electron energy =    -122.161806460729
        pCCD two-electron energy =      37.309962025543
        * pCCD total energy      =     -76.050378870618

    ==> Orbital Optimization <==

        p2RDM one-electron energy =    -122.168324341197
        p2RDM two-electron energy =      37.315009507852
        * p2RDM total energy      =     -76.051849268778

    ==> oo-pCCD summary <==

       iter   iter(CI)   iter(oo)           E(CI)           E(oo)            |dE|
          7         9           8  -76.0503788706  -76.0518492688    0.0017251568

    ==> Begin pCCD iterations <==

        iter          energy       d(Energy)          |d(T)|
           0   -0.0719931447    0.0719931447    0.0037223812
           1   -0.0722797377    0.0002865930    0.0009474106
           2   -0.0723927795    0.0001130418    0.0002750378
           3   -0.0723970574    0.0000042779    0.0000209920
           4   -0.0723973237    0.0000002663    0.0000014629
           5   -0.0723973314    0.0000000077    0.0000000663
           6   -0.0723973321    0.0000000007    0.0000000090
           7   -0.0723973322    0.0000000001    0.0000000012

    ==> Begin z iterations <==

        iter          energy       d(Energy)          |d(Z)|
           0   -0.0701788311    0.0701788311    0.0035618911
           1   -0.0704352780    0.0002564468    0.0008647667
           2   -0.0705293623    0.0000940843    0.0002379454
           3   -0.0705324894    0.0000031272    0.0000166154
           4   -0.0705327213    0.0000002319    0.0000012173
           5   -0.0705327285    0.0000000072    0.0000000573
           6   -0.0705327289    0.0000000004    0.0000000076
           7   -0.0705327289    0.0000000000    0.0000000010

        pCCD one-electron energy =    -122.165304473402
        pCCD two-electron energy =      37.311901870209
        * pCCD total energy      =     -76.051937038626

    ==> Orbital Optimization <==

        p2RDM one-electron energy =    -122.158226840898
        p2RDM two-electron energy =      37.304333391050
        * p2RDM total energy      =     -76.052427885281

    ==> oo-pCCD summary <==

       iter   iter(CI)   iter(oo)           E(CI)           E(oo)            |dE|
          8         8           9  -76.0519370386  -76.0524278853    0.0005786165

    ==> Begin pCCD iterations <==

        iter          energy       d(Energy)          |d(T)|
           0   -0.0728659279    0.0728659279    0.0038464436
           1   -0.0728822314    0.0000163034    0.0009556096
           2   -0.0728841070    0.0000018757    0.0002441642
           3   -0.0728824444   -0.0000016626    0.0000057167
           4   -0.0728821106   -0.0000003339    0.0000007968
           5   -0.0728820870   -0.0000000235    0.0000000795
           6   -0.0728820870   -0.0000000001    0.0000000067

    ==> Begin z iterations <==

        iter          energy       d(Energy)          |d(Z)|
           0   -0.0710044950    0.0710044950    0.0037717544
           1   -0.0710239226    0.0000194275    0.0009201364
           2   -0.0710276862    0.0000037636    0.0002309084
           3   -0.0710264932   -0.0000011930    0.0000049336
           4   -0.0710262531   -0.0000002401    0.0000006189
           5   -0.0710262327   -0.0000000204    0.0000000635
           6   -0.0710262322   -0.0000000004    0.0000000053
           7   -0.0710262322    0.0000000000    0.0000000004

        pCCD one-electron energy =    -122.157814904973
        pCCD two-electron energy =      37.303845761589
        * pCCD total energy      =     -76.052503578817

    ==> Orbital Optimization <==

        p2RDM one-electron energy =    -122.160850720326
        p2RDM two-electron energy =      37.306695202582
        * p2RDM total energy      =     -76.052689953176

    ==> oo-pCCD summary <==

       iter   iter(CI)   iter(oo)           E(CI)           E(oo)            |dE|
          9         7          10  -76.0525035788  -76.0526899532    0.0002620679

    ==> Begin pCCD iterations <==

        iter          energy       d(Energy)          |d(T)|
           0   -0.0731190816    0.0731190816    0.0017810500
           1   -0.0731612099    0.0000421283    0.0004504244
           2   -0.0731778188    0.0000166089    0.0001176371
           3   -0.0731787303    0.0000009115    0.0000036687
           4   -0.0731788983    0.0000001680    0.0000005088
           5   -0.0731789076    0.0000000093    0.0000000286
           6   -0.0731789083    0.0000000007    0.0000000024
           7   -0.0731789084    0.0000000001    0.0000000003

    ==> Begin z iterations <==

        iter          energy       d(Energy)          |d(Z)|
           0   -0.0712534651    0.0712534651    0.0017424742
           1   -0.0712915832    0.0000381181    0.0004322984
           2   -0.0713058385    0.0000142553    0.0001105636
           3   -0.0713064204    0.0000005819    0.0000027973
           4   -0.0713065389    0.0000001185    0.0000003940
           5   -0.0713065470    0.0000000081    0.0000000258
           6   -0.0713065476    0.0000000005    0.0000000019
           7   -0.0713065476    0.0000000001    0.0000000002

        pCCD one-electron energy =    -122.160427857893
        pCCD two-electron energy =      37.306252751209
        * pCCD total energy      =     -76.052709542116

    ==> Orbital Optimization <==

        p2RDM one-electron energy =    -122.158299286309
        p2RDM two-electron energy =      37.304051827489
        * p2RDM total energy      =     -76.052781894253

    ==> oo-pCCD summary <==

       iter   iter(CI)   iter(oo)           E(CI)           E(oo)            |dE|
         10         8          11  -76.0527095421  -76.0527818943    0.0000919411

    ==> Begin pCCD iterations <==

        iter          energy       d(Energy)          |d(T)|
           0   -0.0732284591    0.0732284591    0.0009383418
           1   -0.0732308152    0.0000023561    0.0002365712
           2   -0.0732313757    0.0000005605    0.0000611852
           3   -0.0732313273   -0.0000000484    0.0000007622
           4   -0.0732313272   -0.0000000001    0.0000000935
           5   -0.0732313294    0.0000000021    0.0000000142
           6   -0.0732313297    0.0000000003    0.0000000012
           7   -0.0732313297    0.0000000001    0.0000000002

    ==> Begin z iterations <==

        iter          energy       d(Energy)          |d(Z)|
           0   -0.0713559186    0.0713559186    0.0009180413
           1   -0.0713579684    0.0000020498    0.0002273846
           2   -0.0713583726    0.0000004042    0.0000578077
           3   -0.0713583072   -0.0000000654    0.0000007197
           4   -0.0713583013   -0.0000000059    0.0000000707
           5   -0.0713583016    0.0000000003    0.0000000100
           6   -0.0713583017    0.0000000001    0.0000000010
           7   -0.0713583018    0.0000000000    0.0000000001

        pCCD one-electron energy =    -122.158287679710
        pCCD two-electron energy =      37.304035465064
        * pCCD total energy      =     -76.052786650078

    ==> Orbital Optimization <==

        p2RDM one-electron energy =    -122.158788780684
        p2RDM two-electron energy =      37.304505862503
        * p2RDM total energy      =     -76.052817353614

    ==> oo-pCCD summary <==

       iter   iter(CI)   iter(oo)           E(CI)           E(oo)            |dE|
         11         8          12  -76.0527866501  -76.0528173536    0.0000354594

    ==> Begin pCCD iterations <==

        iter          energy       d(Energy)          |d(T)|
           0   -0.0732783021    0.0732783021    0.0008215617
           1   -0.0732832059    0.0000049038    0.0002075183
           2   -0.0732851251    0.0000019191    0.0000536074
           3   -0.0732851673    0.0000000422    0.0000005229
           4   -0.0732851724    0.0000000051    0.0000000459
           5   -0.0732851736    0.0000000012    0.0000000081
           6   -0.0732851738    0.0000000002    0.0000000007
           7   -0.0732851738    0.0000000000    0.0000000001

    ==> Begin z iterations <==

        iter          energy       d(Energy)          |d(Z)|
           0   -0.0714036995    0.0714036995    0.0008045366
           1   -0.0714084907    0.0000047911    0.0001997375
           2   -0.0714103298    0.0000018392    0.0000507393
           3   -0.0714103706    0.0000000408    0.0000005179
           4   -0.0714103750    0.0000000044    0.0000000398
           5   -0.0714103759    0.0000000009    0.0000000062
           6   -0.0714103760    0.0000000001    0.0000000006
           7   -0.0714103761    0.0000000000    0.0000000001

        pCCD one-electron energy =    -122.158722085256
        pCCD two-electron energy =      37.304435565877
        * pCCD total energy      =     -76.052820954812

    ==> Orbital Optimization <==

        p2RDM one-electron energy =    -122.158494790746
        p2RDM two-electron energy =      37.304196923064
        * p2RDM total energy      =     -76.052832303114

    ==> oo-pCCD summary <==

       iter   iter(CI)   iter(oo)           E(CI)           E(oo)            |dE|
         12         8          13  -76.0528209548  -76.0528323031    0.0000149495

    ==> Begin pCCD iterations <==

        iter          energy       d(Energy)          |d(T)|
           0   -0.0732907993    0.0732907993    0.0004274019
           1   -0.0732889431   -0.0000018562    0.0001084093
           2   -0.0732880312   -0.0000009119    0.0000280812
           3   -0.0732879412   -0.0000000900    0.0000003374
           4   -0.0732879202   -0.0000000210    0.0000000541
           5   -0.0732879179   -0.0000000023    0.0000000070
           6   -0.0732879179   -0.0000000000    0.0000000003

    ==> Begin z iterations <==

        iter          energy       d(Energy)          |d(Z)|
           0   -0.0714165760    0.0714165760    0.0004182547
           1   -0.0714149210   -0.0000016550    0.0001042530
           2   -0.0714141361   -0.0000007849    0.0000265463
           3   -0.0714140654   -0.0000000707    0.0000003099
           4   -0.0714140505   -0.0000000149    0.0000000415
           5   -0.0714140485   -0.0000000020    0.0000000058
           6   -0.0714140485   -0.0000000000    0.0000000003

        pCCD one-electron energy =    -122.158511929295
        pCCD two-electron energy =      37.304213298510
        * pCCD total energy      =     -76.052833066218

    ==> Orbital Optimization <==

        p2RDM one-electron energy =    -122.158105704218
        p2RDM two-electron energy =      37.303803393027
        * p2RDM total energy      =     -76.052836746623

    ==> oo-pCCD summary <==

       iter   iter(CI)   iter(oo)           E(CI)           E(oo)            |dE|
         13         7          14  -76.0528330662  -76.0528367466    0.0000044435

    ==> Begin pCCD iterations <==

        iter          energy       d(Energy)          |d(T)|
           0   -0.0732882345    0.0732882345    0.0002636535
           1   -0.0732909650    0.0000027304    0.0000667624
           2   -0.0732919755    0.0000010105    0.0000172841
           3   -0.0732920069    0.0000000314    0.0000001968
           4   -0.0732920172    0.0000000103    0.0000000326
           5   -0.0732920187    0.0000000015    0.0000000043
           6   -0.0732920188    0.0000000001    0.0000000002

    ==> Begin z iterations <==

        iter          energy       d(Energy)          |d(Z)|
           0   -0.0714141185    0.0714141185    0.0002581167
           1   -0.0714166372    0.0000025187    0.0000642323
           2   -0.0714175289    0.0000008917    0.0000163479
           3   -0.0714175488    0.0000000199    0.0000001753
           4   -0.0714175552    0.0000000064    0.0000000231
           5   -0.0714175564    0.0000000012    0.0000000035
           6   -0.0714175564    0.0000000001    0.0000000002

        pCCD one-electron energy =    -122.158068133599
        pCCD two-electron energy =      37.303765290843
        * pCCD total energy      =     -76.052837278189

    ==> Orbital Optimization <==

        p2RDM one-electron energy =    -122.158418452917
        p2RDM two-electron energy =      37.304114228714
        * p2RDM total energy      =     -76.052838659636

    ==> oo-pCCD summary <==

       iter   iter(CI)   iter(oo)           E(CI)           E(oo)            |dE|
         14         7          15  -76.0528372782  -76.0528386596    0.0000019130

    ==> Begin pCCD iterations <==

        iter          energy       d(Energy)          |d(T)|
           0   -0.0732919761    0.0732919761    0.0001824120
           1   -0.0732913613   -0.0000006148    0.0000462297
           2   -0.0732910906   -0.0000002707    0.0000119707
           3   -0.0732910731   -0.0000000176    0.0000001065
           4   -0.0732910691   -0.0000000040    0.0000000123
           5   -0.0732910682   -0.0000000008    0.0000000022
           6   -0.0732910682   -0.0000000000    0.0000000001

    ==> Begin z iterations <==

        iter          energy       d(Energy)          |d(Z)|
           0   -0.0714176631    0.0714176631    0.0001785056
           1   -0.0714170932   -0.0000005699    0.0000444548
           2   -0.0714168506   -0.0000002426    0.0000113173
           3   -0.0714168363   -0.0000000143    0.0000001067
           4   -0.0714168334   -0.0000000029    0.0000000102
           5   -0.0714168328   -0.0000000006    0.0000000017
           6   -0.0714168327   -0.0000000000    0.0000000001

        pCCD one-electron energy =    -122.158426168491
        pCCD two-electron energy =      37.304121812394
        * pCCD total energy      =     -76.052838791530

    ==> Orbital Optimization <==

        p2RDM one-electron energy =    -122.158148782556
        p2RDM two-electron energy =      37.303844054824
        * p2RDM total energy      =     -76.052839163165

    ==> oo-pCCD summary <==

       iter   iter(CI)   iter(oo)           E(CI)           E(oo)            |dE|
         15         7          16  -76.0528387915  -76.0528391632    0.0000005035

    ==> Begin pCCD iterations <==

        iter          energy       d(Energy)          |d(T)|
           0   -0.0732911399    0.0732911399    0.0000879716
           1   -0.0732919269    0.0000007869    0.0000223440
           2   -0.0732922475    0.0000003207    0.0000057970
           3   -0.0732922674    0.0000000198    0.0000000844
           4   -0.0732922728    0.0000000055    0.0000000153
           5   -0.0732922732    0.0000000004    0.0000000012
           6   -0.0732922732    0.0000000000    0.0000000000

    ==> Begin z iterations <==

        iter          energy       d(Energy)          |d(Z)|
           0   -0.0714168015    0.0714168015    0.0000860854
           1   -0.0714175071    0.0000007056    0.0000214836
           2   -0.0714177803    0.0000002732    0.0000054770
           3   -0.0714177938    0.0000000135    0.0000000706
           4   -0.0714177974    0.0000000036    0.0000000111
           5   -0.0714177978    0.0000000004    0.0000000011
           6   -0.0714177978    0.0000000000    0.0000000000

        pCCD one-electron energy =    -122.158140443085
        pCCD two-electron energy =      37.303835607635
        * pCCD total energy      =     -76.052839270883

    ==> Orbital Optimization <==

        p2RDM one-electron energy =    -122.158184081029
        p2RDM two-electron energy =      37.303879144477
        * p2RDM total energy      =     -76.052839371984

    ==> oo-pCCD summary <==

       iter   iter(CI)   iter(oo)           E(CI)           E(oo)            |dE|
         16         7          17  -76.0528392709  -76.0528393720    0.0000002088

    ==> Begin pCCD iterations <==

        iter          energy       d(Energy)          |d(T)|
           0   -0.0732925704    0.0732925704    0.0000601629
           1   -0.0732923640   -0.0000002064    0.0000152334
           2   -0.0732922767   -0.0000000873    0.0000039460
           3   -0.0732922705   -0.0000000062    0.0000000385
           4   -0.0732922687   -0.0000000018    0.0000000057
           5   -0.0732922684   -0.0000000003    0.0000000009
           6   -0.0732922684   -0.0000000000    0.0000000000

    ==> Begin z iterations <==

        iter          energy       d(Energy)          |d(Z)|
           0   -0.0714181276    0.0714181276    0.0000588667
           1   -0.0714179449   -0.0000001828    0.0000146428
           2   -0.0714178715   -0.0000000734    0.0000037284
           3   -0.0714178671   -0.0000000044    0.0000000370
           4   -0.0714178660   -0.0000000011    0.0000000042
           5   -0.0714178657   -0.0000000002    0.0000000007
           6   -0.0714178657   -0.0000000000    0.0000000000

        pCCD one-electron energy =    -122.158186086071
        pCCD two-electron energy =      37.303881150501
        * pCCD total energy      =     -76.052839371003

    ==> Orbital Optimization <==

        p2RDM one-electron energy =    -122.158206327907
        p2RDM two-electron energy =      37.303901377738
        * p2RDM total energy      =     -76.052839385601

    ==> oo-pCCD summary <==

       iter   iter(CI)   iter(oo)           E(CI)           E(oo)            |dE|
         17         7          18  -76.0528393710  -76.0528393856    0.0000000136

    ==> Begin pCCD iterations <==

        iter          energy       d(Energy)          |d(T)|
           0   -0.0732921573    0.0732921573    0.0000224736
           1   -0.0732922205    0.0000000632    0.0000057126
           2   -0.0732922459    0.0000000254    0.0000014793
           3   -0.0732922473    0.0000000014    0.0000000129
           4   -0.0732922477    0.0000000004    0.0000000014
           5   -0.0732922478    0.0000000001    0.0000000003

    ==> Begin z iterations <==

        iter          energy       d(Energy)          |d(Z)|
           0   -0.0714177455    0.0714177455    0.0000219923
           1   -0.0714178024    0.0000000569    0.0000054938
           2   -0.0714178241    0.0000000217    0.0000013987
           3   -0.0714178251    0.0000000010    0.0000000128
           4   -0.0714178253    0.0000000003    0.0000000011
           5   -0.0714178254    0.0000000001    0.0000000002

        pCCD one-electron energy =    -122.158205571576
        pCCD two-electron energy =      37.303900613532
        * pCCD total energy      =     -76.052839393477

    ==> Orbital Optimization <==

        p2RDM one-electron energy =    -122.158224949299
        p2RDM two-electron energy =      37.303919988932
        * p2RDM total energy      =     -76.052839395800

    ==> oo-pCCD summary <==

       iter   iter(CI)   iter(oo)           E(CI)           E(oo)            |dE|
         18         6          19  -76.0528393935  -76.0528393958    0.0000000102

    ==> Begin pCCD iterations <==

        iter          energy       d(Energy)          |d(T)|
           0   -0.0732922442    0.0732922442    0.0000096398
           1   -0.0732922177   -0.0000000264    0.0000024493
           2   -0.0732922070   -0.0000000108    0.0000006343
           3   -0.0732922062   -0.0000000007    0.0000000059
           4   -0.0732922060   -0.0000000002    0.0000000008
           5   -0.0732922060   -0.0000000000    0.0000000001

    ==> Begin z iterations <==

        iter          energy       d(Energy)          |d(Z)|
           0   -0.0714178277    0.0714178277    0.0000094334
           1   -0.0714178048   -0.0000000230    0.0000023555
           2   -0.0714177960   -0.0000000088    0.0000005998
           3   -0.0714177956   -0.0000000005    0.0000000056
           4   -0.0714177954   -0.0000000001    0.0000000006
           5   -0.0714177954   -0.0000000000    0.0000000001

        pCCD one-electron energy =    -122.158225211945
        pCCD two-electron energy =      37.303920253937
        * pCCD total energy      =     -76.052839393441

    ==> Orbital Optimization <==

        p2RDM one-electron energy =    -122.158224939975
        p2RDM two-electron energy =      37.303919981712
        * p2RDM total energy      =     -76.052839393695

    ==> oo-pCCD summary <==

       iter   iter(CI)   iter(oo)           E(CI)           E(oo)            |dE|
         19         6          20  -76.0528393934  -76.0528393937    0.0000000021

    ==> Begin pCCD iterations <==

        iter          energy       d(Energy)          |d(T)|
           0   -0.0732922075    0.0732922075    0.0000035449
           1   -0.0732922128    0.0000000052    0.0000009018
           2   -0.0732922152    0.0000000024    0.0000002336
           3   -0.0732922154    0.0000000002    0.0000000020
           4   -0.0732922155    0.0000000001    0.0000000002

    ==> Begin z iterations <==

        iter          energy       d(Energy)          |d(Z)|
           0   -0.0714177954    0.0714177954    0.0000034690
           1   -0.0714177997    0.0000000044    0.0000008672
           2   -0.0714178016    0.0000000019    0.0000002209
           3   -0.0714178018    0.0000000002    0.0000000020
           4   -0.0714178018    0.0000000000    0.0000000002

        pCCD one-electron energy =    -122.158224913104
        pCCD two-electron energy =      37.303919954042
        * pCCD total energy      =     -76.052839394495

    ==> Orbital Optimization <==

        p2RDM one-electron energy =    -122.158225504025
        p2RDM two-electron energy =      37.303920544936
        * p2RDM total energy      =     -76.052839394521

    ==> oo-pCCD summary <==

       iter   iter(CI)   iter(oo)           E(CI)           E(oo)            |dE|
         20         5          18  -76.0528393945  -76.0528393945    0.0000000008

    ==> Begin pCCD iterations <==

        iter          energy       d(Energy)          |d(T)|
           0   -0.0732922177    0.0732922177    0.0000010909
           1   -0.0732922173   -0.0000000004    0.0000002777
           2   -0.0732922170   -0.0000000003    0.0000000719
           3   -0.0732922170   -0.0000000000    0.0000000006

    ==> Begin z iterations <==

        iter          energy       d(Energy)          |d(Z)|
           0   -0.0714178043    0.0714178043    0.0000010673
           1   -0.0714178040   -0.0000000003    0.0000002669
           2   -0.0714178038   -0.0000000002    0.0000000680
           3   -0.0714178038   -0.0000000000    0.0000000006

        pCCD one-electron energy =    -122.158225499468
        pCCD two-electron energy =      37.303920540500
        * pCCD total energy      =     -76.052839394401

    ==> Orbital Optimization <==

        p2RDM one-electron energy =    -122.158225456253
        p2RDM two-electron energy =      37.303920497285
        * p2RDM total energy      =     -76.052839394401

    ==> oo-pCCD summary <==

       iter   iter(CI)   iter(oo)           E(CI)           E(oo)            |dE|
         21         4           1  -76.0528393944  -76.0528393944    0.0000000001

    ==> Begin pCCD iterations <==

        iter          energy       d(Energy)          |d(T)|
           0   -0.0732922170    0.0732922170    0.0000000394
           1   -0.0732922170   -0.0000000001    0.0000000099

    ==> Begin z iterations <==

        iter          energy       d(Energy)          |d(Z)|
           0   -0.0714178039    0.0714178039    0.0000000386
           1   -0.0714178038   -0.0000000001    0.0000000095

        pCCD one-electron energy =    -122.158225457042
        pCCD two-electron energy =      37.303920498083
        * pCCD total energy      =     -76.052839394391

    ==> Orbital Optimization <==

        p2RDM one-electron energy =    -122.158225509654
        p2RDM two-electron energy =      37.303920550695
        * p2RDM total energy      =     -76.052839394392

    ==> oo-pCCD summary <==

       iter   iter(CI)   iter(oo)           E(CI)           E(oo)            |dE|
         22         2           1  -76.0528393944  -76.0528393944    0.0000000000

      oo-pCCD iterations converged!

    * oo-pCCD total energy:                  -76.052839394392


 # Natural Orbital Occupation Numbers (spin free) #
 Irrep: 1
      1:  1.9999919
      2:  1.9928259
      3:  1.9753431
      4:  1.9753431
      5:  1.9928256
      6:  0.0240202
      7:  0.0240202
      8:  0.0011328
      9:  0.0011328
     10:  0.0065303
     11:  0.0065300
     12:  0.0001520
     13:  0.0001520

    SCF total energy..................................................PASSED
    pCCD total energy.................................................PASSED

    Psi4 stopped on: Friday, 10 July 2020 11:35AM
    Psi4 wall time for execution: 0:00:02.51

*** Psi4 exiting successfully. Buy a developer a beer!
