
    -----------------------------------------------------------------------
          Psi4: An Open-Source Ab Initio Electronic Structure Package
                               Psi4 1.4a2.dev397 

                         Git: Rev {master} b3df9b2 dirty


    R. M. Parrish, L. A. Burns, D. G. A. Smith, A. C. Simmonett,
    A. E. DePrince III, E. G. Hohenstein, U. Bozkaya, A. Yu. Sokolov,
    R. Di Remigio, R. M. Richard, J. F. Gonthier, A. M. James,
    H. R. McAlexander, A. Kumar, M. Saitow, X. Wang, B. P. Pritchard,
    P. Verma, H. F. Schaefer III, K. Patkowski, R. A. King, E. F. Valeev,
    F. A. Evangelista, J. M. Turney, T. D. Crawford, and C. D. Sherrill,
    J. Chem. Theory Comput. 13(7) pp 3185--3197 (2017).
    (doi: 10.1021/acs.jctc.7b00174)


                         Additional Contributions by
    P. Kraus, H. Kruse, M. H. Lechner, M. C. Schieber, R. A. Shaw,
    A. Alenaizan, R. Galvelis, Z. L. Glick, S. Lehtola, and J. P. Misiewicz

    -----------------------------------------------------------------------


    Psi4 started on: Saturday, 11 July 2020 09:05PM

    Process ID: 45467
    Host:       Eugenes-MacBook-Air.local
    PSIDATADIR: /Users/deprince/edeprince3/psi4/install/master/share/psi4
    Memory:     500.0 MiB
    Threads:    1
    
  ==> Input File <==

--------------------------------------------------------------------------

# job description:
print('        H2O / 6-31g / DOCI, scf_type = DF, rOH = 1.0 A, aHOH = 104.5')

sys.path.insert(0, '../../..')
import hilbert

molecule h2o {
0 1
O
H 1 1.0
H 1 1.0 2 104.5
symmetry c1
}

set {
  reference rhf
  basis 6-31g
  scf_type df

  e_convergence 1e-4
  r_convergence 1e-6
  orbopt_gradient_convergence 1e-6
  orbopt_energy_convergence 1e-8

  localize_orbitals true
  noisy_orbitals    true
  optimize_orbitals true
  orbopt_maxiter 20
  orbopt_frequency 1000
  maxiter 100000

  positivity dqg

}

en = energy('v2rdm-doci')

ref_scf        = -75.98014193580194 # TEST
ref_v2rdm_doci = -76.053681341564   # TEST

compare_values(ref_scf, variable("SCF TOTAL ENERGY"), 8, "SCF total energy") # TEST
compare_values(ref_v2rdm_doci, variable("CURRENT ENERGY"), 4, "v2RDM-DOCI total energy") # TEST
--------------------------------------------------------------------------

Scratch directory: /tmp/

*** tstart() called on Eugenes-MacBook-Air.local
*** at Sat Jul 11 21:05:26 2020

   => Loading Basis Set <=

    Name: 6-31G
    Role: ORBITAL
    Keyword: BASIS
    atoms 1   entry O          line   117 file /Users/deprince/edeprince3/psi4/install/master/share/psi4/basis/6-31g.gbs 
    atoms 2-3 entry H          line    26 file /Users/deprince/edeprince3/psi4/install/master/share/psi4/basis/6-31g.gbs 


         ---------------------------------------------------------
                                   SCF
               by Justin Turney, Rob Parrish, Andy Simmonett
                          and Daniel G. A. Smith
                              RHF Reference
                        1 Threads,    500 MiB Core
         ---------------------------------------------------------

  ==> Geometry <==

    Molecular point group: c1
    Full point group: C2v

    Geometry (in Angstrom), charge = 0, multiplicity = 1:

       Center              X                  Y                   Z               Mass       
    ------------   -----------------  -----------------  -----------------  -----------------
         O            0.000000000000     0.000000000000    -0.068516219320    15.994914619570
         H            0.000000000000    -0.790689573744     0.543701060715     1.007825032230
         H            0.000000000000     0.790689573744     0.543701060715     1.007825032230

  Running in c1 symmetry.

  Rotational constants: A =     25.12555  B =     13.37733  C =      8.72955 [cm^-1]
  Rotational constants: A = 753245.07149  B = 401042.16706  C = 261705.25473 [MHz]
  Nuclear repulsion =    8.801465564567374

  Charge       = 0
  Multiplicity = 1
  Electrons    = 10
  Nalpha       = 5
  Nbeta        = 5

  ==> Algorithm <==

  SCF Algorithm Type is DF.
  DIIS enabled.
  MOM disabled.
  Fractional occupation disabled.
  Guess Type is SAD.
  Energy threshold   = 1.00e-04
  Density threshold  = 1.00e-08
  Integral threshold = 0.00e+00

  ==> Primary Basis <==

  Basis Set: 6-31G
    Blend: 6-31G
    Number of shells: 9
    Number of basis function: 13
    Number of Cartesian functions: 13
    Spherical Harmonics?: false
    Max angular momentum: 1

   => Loading Basis Set <=

    Name: (6-31G AUX)
    Role: JKFIT
    Keyword: DF_BASIS_SCF
    atoms 1   entry O          line   221 file /Users/deprince/edeprince3/psi4/install/master/share/psi4/basis/cc-pvdz-jkfit.gbs 
    atoms 2-3 entry H          line    51 file /Users/deprince/edeprince3/psi4/install/master/share/psi4/basis/cc-pvdz-jkfit.gbs 

  ==> Pre-Iterations <==

   -------------------------------------------------------
    Irrep   Nso     Nmo     Nalpha   Nbeta   Ndocc  Nsocc
   -------------------------------------------------------
     A         13      13       0       0       0       0
   -------------------------------------------------------
    Total      13      13       5       5       5       0
   -------------------------------------------------------

  ==> Integral Setup <==

  ==> DiskDFJK: Density-Fitted J/K Matrices <==

    J tasked:                  Yes
    K tasked:                  Yes
    wK tasked:                  No
    OpenMP threads:              1
    Integrals threads:           1
    Memory [MiB]:              375
    Algorithm:                Core
    Integral Cache:           SAVE
    Schwarz Cutoff:          1E-12
    Fitting Condition:       1E-10

   => Auxiliary Basis Set <=

  Basis Set: (6-31G AUX)
    Blend: CC-PVDZ-JKFIT
    Number of shells: 42
    Number of basis function: 131
    Number of Cartesian functions: 131
    Spherical Harmonics?: false
    Max angular momentum: 3

  Minimum eigenvalue in the overlap matrix is 7.3923788795E-02.
  Reciprocal condition number of the overlap matrix is 2.1980826342E-02.
    Using symmetric orthogonalization.
  SCF Guess: Superposition of Atomic Densities via on-the-fly atomic UHF.

  ==> Iterations <==

                           Total Energy        Delta E     RMS |[F,P]|

   @DF-RHF iter SAD:   -75.45941871343828   -7.54594e+01   0.00000e+00 
   @DF-RHF iter   1:   -75.90434666105367   -4.44928e-01   3.09953e-02 DIIS
   @DF-RHF iter   2:   -75.95857164768282   -5.42250e-02   1.90214e-02 DIIS
   @DF-RHF iter   3:   -75.97973621451969   -2.11646e-02   1.56674e-03 DIIS
   @DF-RHF iter   4:   -75.98012651826689   -3.90304e-04   3.11867e-04 DIIS
   @DF-RHF iter   5:   -75.98014154101817   -1.50228e-05   4.14320e-05 DIIS
   @DF-RHF iter   6:   -75.98014191790431   -3.76886e-07   8.27072e-06 DIIS
   @DF-RHF iter   7:   -75.98014193491713   -1.70128e-08   1.79874e-06 DIIS
   @DF-RHF iter   8:   -75.98014193578133   -8.64205e-10   3.33255e-07 DIIS
   @DF-RHF iter   9:   -75.98014193580164   -2.03073e-11   3.10076e-08 DIIS
   @DF-RHF iter  10:   -75.98014193580194   -2.98428e-13   2.58167e-09 DIIS
  Energy and wave function converged.


  ==> Post-Iterations <==

    Orbital Energies [Eh]
    ---------------------

    Doubly Occupied:                                                      

       1A    -20.568888     2A     -1.334712     3A     -0.686875  
       4A     -0.554298     5A     -0.499284  

    Virtual:                                                              

       6A      0.193417     7A      0.287599     8A      1.041506  
       9A      1.130380    10A      1.164432    11A      1.220999  
      12A      1.368964    13A      1.693510  

    Final Occupation by Irrep:
              A 
    DOCC [     5 ]

  @DF-RHF Final Energy:   -75.98014193580194

   => Energetics <=

    Nuclear Repulsion Energy =              8.8014655645673745
    One-Electron Energy =                -122.2751012239349109
    Two-Electron Energy =                  37.4934937235655994
    Total Energy =                        -75.9801419358019245

Computation Completed


Properties will be evaluated at   0.000000,   0.000000,   0.000000 [a0]

Properties computed using the SCF density matrix

  Nuclear Dipole Moment: [e a0]
     X:     0.0000      Y:     0.0000      Z:     1.0191

  Electronic Dipole Moment: [e a0]
     X:    -0.0000      Y:     0.0000      Z:     0.0213

  Dipole Moment: [e a0]
     X:    -0.0000      Y:     0.0000      Z:     1.0404     Total:     1.0404

  Dipole Moment: [D]
     X:    -0.0000      Y:     0.0000      Z:     2.6444     Total:     2.6444


*** tstop() called on Eugenes-MacBook-Air.local at Sat Jul 11 21:05:26 2020
Module time:
	user time   =       0.33 seconds =       0.01 minutes
	system time =       0.02 seconds =       0.00 minutes
	total time  =          0 seconds =       0.00 minutes
Total time:
	user time   =       0.33 seconds =       0.01 minutes
	system time =       0.02 seconds =       0.00 minutes
	total time  =          0 seconds =       0.00 minutes

Reading options from the HILBERT block
Calling plugin hilbert.so.


  ==> Pipek-Mezey Localizer <==

    Convergence =   1.000E-08
    Maxiter     =          50

    Iteration                   Metric       Residual
    @PM    0   4.0403577598919860E+00              -
    @PM    1   4.2293811168321778E+00   4.678382E-02
    @PM    2   4.2298843280346654E+00   1.189799E-04
    @PM    3   4.2298866055815463E+00   5.384419E-07
    @PM    4   4.2298866262938315E+00   4.896653E-09

    PM Localizer converged.



        ***************************************************
        *                                                 *
        *    v2RDM-DOCI                                   *
        *                                                 *
        *    A variational 2-RDM-driven approach to       *
        *    doubly occupied configuration interaction    *
        *                                                 *
        ***************************************************

  ==> Convergence parameters <==

        r_convergence:                      1.000e-06
        e_convergence:                      1.000e-04
        cg_convergence:                     1.000e-09
        maxiter:                               100000
        cg_maxiter:                             10000

  ==> Active space details <==

        Number of frozen core orbitals:             0
        Number of restricted occupied orbitals:     0
        Number of active occupied orbitals:         5
        Number of active virtual orbitals:          8
        Number of restricted virtual orbitals:      0
        Number of frozen virtual orbitals:          0

        Irrep:              A 
 
        frozen_docc     [   0 ]
        restricted_docc [   0 ]
        active          [  13 ]
        restricted_uocc [   0 ]
        frozen_uocc     [   0 ]

  ==> Orbital optimization parameters <==

        1-step algorithm:                    true
        g_convergence:                  1.000e-06
        e_convergence:                  1.000e-08
        maximum iterations:                    20
        frequency:                           1000
        active-active rotations:             true
        exact diagonal Hessian:              true
        number of DIIS vectors:                 0
        print iteration info:               false

  ==> Memory requirements <==

        D2:                          0.00 mb
        Q2:                          0.00 mb
        G2:                          0.01 mb

        Total number of variables:           1079
        Total number of constraints:          939
        Total memory requirements:        2.77 mb

    ==> Transform three-electron integrals <==


        Time for integral transformation:     0.01 s

    Molecular point group: c1
    Full point group: C2v

    Geometry (in Angstrom), charge = 0, multiplicity = 1:

       Center              X                  Y                   Z               Mass       
    ------------   -----------------  -----------------  -----------------  -----------------
         O            0.000000000000     0.000000000000    -0.068516219320    15.994914619570
         H            0.000000000000    -0.790689573744     0.543701060715     1.007825032230
         H            0.000000000000     0.790689573744     0.543701060715     1.007825032230

  -AO BASIS SET INFORMATION:
    Name                   = 6-31G
    Blend                  = 6-31G
    Total number of shells = 9
    Number of primitives   = 22
    Number of AO           = 13
    Number of SO           = 13
    Maximum AM             = 1
    Spherical Harmonics    = FALSE

  -Contraction Scheme:
    Atom   Type   All Primitives // Shells:
   ------ ------ --------------------------
       1     O     10s 4p // 3s 2p 
       2     H     4s // 2s 
       3     H     4s // 2s 

  ==> AO Basis Functions <==

    [ 6-31G ]
    cartesian
    ****
    O   1
    S   6 1.00
                      5484.67170000           0.00183110
                       825.23495000           0.01395010
                       188.04696000           0.06844510
                        52.96450000           0.23271430
                        16.89757000           0.47019300
                         5.79963530           0.35852090
    S   3 1.00
                        15.53961600          -0.11077750
                         3.59993360          -0.14802630
                         1.01376180           1.13076700
    P   3 1.00
                        15.53961600           0.07087430
                         3.59993360           0.33975280
                         1.01376180           0.72715860
    S   1 1.00
                         0.27000580           1.00000000
    P   1 1.00
                         0.27000580           1.00000000
    ****
    H   2
    S   3 1.00
                        18.73113700           0.03349460
                         2.82539370           0.23472695
                         0.64012170           0.81375733
    S   1 1.00
                         0.16127780           1.00000000
    ****
    H   3
    S   3 1.00
                        18.73113700           0.03349460
                         2.82539370           0.23472695
                         0.64012170           0.81375733
    S   1 1.00
                         0.16127780           1.00000000
    ****


    reference energy:         -75.980141935802
    frozen core energy:         0.000000000000
    initial 2-RDM energy:     370.352030494298

      oiter iiter        E(p)        E(d)      E gap)      mu     eps(p)     eps(d)
          0    17 -498.944783  259.805355  758.750138   1.000   5.412028   1.940828
          1    16 -230.819403 -204.617501   26.201902   1.000   0.669156   0.919675
          2    17 -182.782887  -97.327490   85.455396   1.000   0.371328   0.160089
          3    16 -108.861266 -101.091246    7.770020   1.000   0.182056   0.170182
          4    14  -51.297529  -91.519111   40.221582   1.000   0.338280   0.128571
          5    15  -34.423045  -77.090491   42.667446   1.000   0.282583   0.072474
          6    15  -40.589169  -67.512105   26.922936   1.000   0.139265   0.047849
          7    15  -53.793177  -64.889053   11.095875   1.000   0.053545   0.043723
          8    16  -69.550997  -65.673976    3.877021   1.000   0.027810   0.040224
          9    16  -78.955024  -67.600119   11.354905   1.000   0.041787   0.032218
         10    14  -82.527273  -69.806268   12.721005   1.000   0.045371   0.024757
         11    14  -81.859317  -71.602112   10.257205   1.000   0.038304   0.021158
         12    14  -80.359881  -72.810878    7.549003   1.000   0.038239   0.018457
         13    14  -79.782698  -73.780065    6.002633   1.000   0.046320   0.014755
         14    16  -79.064697  -74.705632    4.359065   1.000   0.049463   0.011714
         15    16  -78.022305  -75.412536    2.609769   1.000   0.043272   0.010548
         16    16  -76.901932  -75.723050    1.178882   1.000   0.030971   0.010253
         17    16  -75.878613  -75.718031    0.160582   1.000   0.016936   0.009821
         18    15  -75.129297  -75.509812    0.380516   1.000   0.008511   0.009093
         19    14  -74.734258  -75.291341    0.557082   1.000   0.010946   0.008046
         20    14  -74.584473  -75.240923    0.656450   1.000   0.015240   0.006803
         21    16  -74.685889  -75.177332    0.491443   1.000   0.016421   0.006193
         22    16  -74.886221  -75.117488    0.231267   1.000   0.015546   0.005537
         23    14  -75.098740  -75.127198    0.028458   1.000   0.013895   0.004750
         24    15  -75.310353  -75.211256    0.099097   1.000   0.011745   0.004266
         25    14  -75.503355  -75.336621    0.166734   1.000   0.009209   0.004359
         26    16  -75.644230  -75.466688    0.177542   1.000   0.006871   0.004617
         27    16  -75.728993  -75.566969    0.162023   1.000   0.004946   0.004754
         28    16  -75.775948  -75.604615    0.171332   1.000   0.003454   0.004776
         29    14  -75.813654  -75.586345    0.227308   1.000   0.002560   0.004686
         30    15  -75.866899  -75.532676    0.334224   1.000   0.002707   0.004512
         31    15  -75.946977  -75.467620    0.479357   1.000   0.003664   0.004313
         32    14  -76.028833  -75.415654    0.613178   1.000   0.004625   0.004114
         33    15  -76.094697  -75.384104    0.710594   1.000   0.005207   0.003969
         34    14  -76.126498  -75.368015    0.758484   1.000   0.005231   0.003919
         35    16  -76.118193  -75.359141    0.759052   1.000   0.004666   0.003953
         36    14  -76.076395  -75.359458    0.716938   1.000   0.003654   0.004007
         37    15  -76.015052  -75.366690    0.648362   1.000   0.002574   0.004030
         38    12  -75.948718  -75.375918    0.572800   1.000   0.002149   0.003991
         39    14  -76.075846  -75.381253    0.694593   1.000   0.002268   0.003708
         40    13  -76.176871  -75.436541    0.740330   1.000   0.002588   0.003434
         41    15  -76.198056  -75.514924    0.683131   1.000   0.002314   0.003429
         42    15  -76.162353  -75.579668    0.582686   1.000   0.001806   0.003444
         43    12  -76.095674  -75.618244    0.477430   1.000   0.001516   0.003397
         44    14  -76.043909  -75.633398    0.410511   1.000   0.001824   0.003248
         45    15  -76.298369  -75.651589    0.646779   1.000   0.003715   0.002303
         46    15  -76.414300  -75.834827    0.579473   1.000   0.004594   0.000765
         47    17  -76.425202  -76.037658    0.387544   1.000   0.004102   0.000924
         48    16  -76.339283  -76.193097    0.146186   1.000   0.002890   0.001194
         49    16  -76.187884  -76.269654    0.081770   1.000   0.001758   0.001074
         50    14  -76.019534  -76.268360    0.248826   1.000   0.001798   0.000826
         51    16  -75.880142  -76.210513    0.330371   1.000   0.002526   0.000604
         52    16  -75.796245  -76.128124    0.331879   1.000   0.003027   0.000474
         53    14  -75.769686  -76.050596    0.280909   1.000   0.003136   0.000404
         54    17  -75.791013  -75.993808    0.202794   1.000   0.002926   0.000393
         55    17  -75.843831  -75.967243    0.123412   1.000   0.002466   0.000362
         56    17  -75.898617  -75.963621    0.065005   1.000   0.002076   0.000297
         57    16  -75.943615  -75.973407    0.029791   1.000   0.001771   0.000253
         58    16  -75.971967  -75.989214    0.017247   1.000   0.001579   0.000233
         59    16  -75.984780  -76.003996    0.019215   1.000   0.001473   0.000228
         60    16  -75.986881  -76.014229    0.027347   1.000   0.001419   0.000219
         61    17  -75.983528  -76.020168    0.036640   1.000   0.001390   0.000204
         62    17  -75.978373  -76.023696    0.045323   1.000   0.001375   0.000182
         63    16  -75.973795  -76.025690    0.051896   1.000   0.001365   0.000159
         64    16  -75.971891  -76.027113    0.055222   1.000   0.001330   0.000146
         65    17  -75.969387  -76.029363    0.059977   1.000   0.001319   0.000131
         66    17  -75.965531  -76.031276    0.065744   1.000   0.001332   0.000124
         67    16  -75.960438  -76.032876    0.072439   1.000   0.001367   0.000127
         68    16  -75.954260  -76.033974    0.079714   1.000   0.001419   0.000123
         69    16  -75.946932  -76.033913    0.086981   1.000   0.001469   0.000118
         70    16  -75.939492  -76.033275    0.093782   1.000   0.001526   0.000112
         71    17  -75.932999  -76.031718    0.098719   1.000   0.001573   0.000097
         72    17  -75.928251  -76.028337    0.100086   1.000   0.001603   0.000082
         73    16  -75.926624  -76.024267    0.097643   1.000   0.001596   0.000086
         74    17  -75.927338  -76.021646    0.094308   1.000   0.001564   0.000082
         75    17  -75.929205  -76.019567    0.090361   1.000   0.001528   0.000075
         76    17  -75.934018  -76.018302    0.084285   1.000   0.001447   0.000076
         77    17  -75.937464  -76.017657    0.080193   1.000   0.001398   0.000075
         78    16  -75.940336  -76.017156    0.076821   1.000   0.001358   0.000069
         79    16  -75.942898  -76.016379    0.073481   1.000   0.001323   0.000068
         80    16  -75.945245  -76.016073    0.070828   1.000   0.001297   0.000065
         81    16  -75.947035  -76.017019    0.069984   1.000   0.001278   0.000074
         82    17  -75.952748  -76.019668    0.066920   1.000   0.001247   0.000071
         83    17  -75.961763  -76.022068    0.060305   1.000   0.001209   0.000074
         84    17  -75.967196  -76.024317    0.057121   1.000   0.001188   0.000078
         85    17  -75.974387  -76.026709    0.052323   1.000   0.001140   0.000067
         86    17  -75.984698  -76.028541    0.043843   1.000   0.001079   0.000077
         87    17  -75.985539  -76.030396    0.044858   1.000   0.001073   0.000067
         88    16  -75.983059  -76.030810    0.047752   1.000   0.001085   0.000061
         89    17  -75.980774  -76.029706    0.048932   1.000   0.001074   0.000090
         90    16  -75.978276  -76.029600    0.051323   1.000   0.001074   0.000088
         91    17  -75.978008  -76.029965    0.051957   1.000   0.001059   0.000075
         92    17  -75.978520  -76.029730    0.051210   1.000   0.001027   0.000085
         93    17  -75.977145  -76.029627    0.052482   1.000   0.001022   0.000081
         94    16  -75.975089  -76.029589    0.054500   1.000   0.001031   0.000093
         95    16  -75.973276  -76.029262    0.055985   1.000   0.001043   0.000089
         96    16  -75.972169  -76.028700    0.056532   1.000   0.001049   0.000081
         97    16  -75.972785  -76.027486    0.054701   1.000   0.001022   0.000073
         98    17  -75.973168  -76.026371    0.053203   1.000   0.000993   0.000071
         99    17  -75.972237  -76.025540    0.053304   1.000   0.000983   0.000059
        100    17  -75.971897  -76.024238    0.052341   1.000   0.000970   0.000050
        101    17  -75.971269  -76.022849    0.051580   1.000   0.000969   0.000042
        102    16  -75.970465  -76.021225    0.050760   1.000   0.000973   0.000037
        103    17  -75.970012  -76.019599    0.049587   1.000   0.000973   0.000036
        104    17  -75.971380  -76.018238    0.046858   1.000   0.000939   0.000048
        105    17  -75.971345  -76.017405    0.046060   1.000   0.000925   0.000041
        106    16  -75.971829  -76.016474    0.044645   1.000   0.000908   0.000042
        107    16  -75.972497  -76.015563    0.043066   1.000   0.000894   0.000043
        108    16  -75.973204  -76.014666    0.041462   1.000   0.000884   0.000043
        109    17  -75.973945  -76.013814    0.039869   1.000   0.000878   0.000042
        110    17  -75.974742  -76.013053    0.038311   1.000   0.000873   0.000040
        111    16  -75.976193  -76.012435    0.036242   1.000   0.000857   0.000038
        112    17  -75.977992  -76.012106    0.034114   1.000   0.000833   0.000038
        113    17  -75.979236  -76.012167    0.032932   1.000   0.000817   0.000037
        114    16  -75.980550  -76.012540    0.031990   1.000   0.000801   0.000038
        115    16  -75.981794  -76.013400    0.031606   1.000   0.000790   0.000032
        116    16  -75.982869  -76.014237    0.031369   1.000   0.000780   0.000028
        117    17  -75.983576  -76.015267    0.031690   1.000   0.000772   0.000025
        118    17  -75.983868  -76.016396    0.032528   1.000   0.000767   0.000025
        119    16  -75.983791  -76.017518    0.033728   1.000   0.000764   0.000026
        120    16  -75.983427  -76.018550    0.035124   1.000   0.000764   0.000029
        121    17  -75.982862  -76.019433    0.036571   1.000   0.000765   0.000030
        122    16  -75.982168  -76.020125    0.037957   1.000   0.000767   0.000031
        123    17  -75.981405  -76.020598    0.039193   1.000   0.000770   0.000031
        124    17  -75.980619  -76.020833    0.040214   1.000   0.000774   0.000030
        125    16  -75.979653  -76.020934    0.041281   1.000   0.000778   0.000034
        126    16  -75.978252  -76.020992    0.042740   1.000   0.000788   0.000030
        127    17  -75.978502  -76.020658    0.042155   1.000   0.000763   0.000034
        128    17  -75.977717  -76.020216    0.042499   1.000   0.000757   0.000032
        129    17  -75.977119  -76.019883    0.042764   1.000   0.000754   0.000036
        130    16  -75.976526  -76.019565    0.043039   1.000   0.000756   0.000027
        131    16  -75.976355  -76.018736    0.042382   1.000   0.000756   0.000024
        132    17  -75.976446  -76.017783    0.041337   1.000   0.000754   0.000023
        133    16  -75.976598  -76.016804    0.040206   1.000   0.000751   0.000021
        134    17  -75.977247  -76.015840    0.038593   1.000   0.000733   0.000024
        135    17  -75.978077  -76.015278    0.037202   1.000   0.000714   0.000026
        136    16  -75.978032  -76.014742    0.036710   1.000   0.000707   0.000024
        137    17  -75.978309  -76.014108    0.035798   1.000   0.000699   0.000023
        138    17  -75.978877  -76.013544    0.034667   1.000   0.000692   0.000022
        139    16  -75.979605  -76.013118    0.033513   1.000   0.000686   0.000021
        140    16  -75.980354  -76.012860    0.032506   1.000   0.000679   0.000021
        141    17  -75.981029  -76.012767    0.031738   1.000   0.000673   0.000025
        142    16  -75.981168  -76.013048    0.031880   1.000   0.000672   0.000024
        143    17  -75.980944  -76.013428    0.032485   1.000   0.000674   0.000020
        144    17  -75.980658  -76.013744    0.033086   1.000   0.000677   0.000017
        145    16  -75.980530  -76.013994    0.033463   1.000   0.000678   0.000015
        146    16  -75.980669  -76.014232    0.033563   1.000   0.000675   0.000015
        147    17  -75.981041  -76.014526    0.033485   1.000   0.000671   0.000014
        148    17  -75.981512  -76.014906    0.033395   1.000   0.000666   0.000015
        149    16  -75.981929  -76.015361    0.033432   1.000   0.000661   0.000015
        150    17  -75.983084  -76.015839    0.032755   1.000   0.000632   0.000022
        151    17  -75.983540  -76.016511    0.032970   1.000   0.000618   0.000020
        152    16  -75.983075  -76.017089    0.034013   1.000   0.000616   0.000017
        153    16  -75.982137  -76.017388    0.035250   1.000   0.000617   0.000016
        154    17  -75.985197  -76.017559    0.032362   1.000   0.000607   0.000022
        155    17  -75.988418  -76.017710    0.029292   1.000   0.000597   0.000022
        156    17  -75.989166  -76.017649    0.028483   1.000   0.000596   0.000019
        157    16  -75.988998  -76.017464    0.028466   1.000   0.000598   0.000021
        158    16  -75.988006  -76.017297    0.029292   1.000   0.000603   0.000019
        159    16  -75.986772  -76.016926    0.030154   1.000   0.000609   0.000016
        160    17  -75.985730  -76.016337    0.030607   1.000   0.000615   0.000013
        161    17  -75.985138  -76.015610    0.030472   1.000   0.000617   0.000012
        162    16  -75.985098  -76.014845    0.029747   1.000   0.000616   0.000012
        163    17  -75.985543  -76.014146    0.028603   1.000   0.000611   0.000012
        164    17  -75.986288  -76.013588    0.027301   1.000   0.000604   0.000011
        165    16  -75.987114  -76.013206    0.026092   1.000   0.000596   0.000011
        166    17  -75.987838  -76.012989    0.025151   1.000   0.000588   0.000015
        167    16  -75.988064  -76.013054    0.024991   1.000   0.000585   0.000017
        168    17  -75.988568  -76.013293    0.024725   1.000   0.000569   0.000023
        169    17  -75.988008  -76.013720    0.025712   1.000   0.000569   0.000019
        170    17  -75.987011  -76.013995    0.026984   1.000   0.000575   0.000017
        171    16  -75.986042  -76.014052    0.028010   1.000   0.000583   0.000014
        172    16  -75.985454  -76.013950    0.028495   1.000   0.000588   0.000013
        173    16  -75.985384  -76.013801    0.028417   1.000   0.000588   0.000011
        174    17  -75.985752  -76.013701    0.027949   1.000   0.000585   0.000010
        175    16  -75.986367  -76.013702    0.027335   1.000   0.000579   0.000010
        176    17  -75.987029  -76.013811    0.026782   1.000   0.000572   0.000010
        177    17  -75.987588  -76.014002    0.026415   1.000   0.000565   0.000010
        178    16  -75.987961  -76.014239    0.026278   1.000   0.000561   0.000010
        179    16  -75.988125  -76.014479    0.026355   1.000   0.000557   0.000010
        180    17  -75.988097  -76.014727    0.026631   1.000   0.000556   0.000014
        181    17  -75.987918  -76.015108    0.027191   1.000   0.000558   0.000011
        182    16  -75.987619  -76.015272    0.027653   1.000   0.000560   0.000010
        183    16  -75.987229  -76.015302    0.028073   1.000   0.000562   0.000010
        184    17  -75.986829  -76.015207    0.028379   1.000   0.000563   0.000010
        185    17  -75.986503  -76.015014    0.028511   1.000   0.000564   0.000010
        186    16  -75.986305  -76.014757    0.028452   1.000   0.000564   0.000010
        187    16  -75.986246  -76.014473    0.028226   1.000   0.000563   0.000009
        188    17  -75.986309  -76.014195    0.027886   1.000   0.000562   0.000009
        189    17  -75.986454  -76.013948    0.027494   1.000   0.000559   0.000010
        190    16  -75.987197  -76.013773    0.026576   1.000   0.000543   0.000030
        191    17  -75.989410  -76.014296    0.024886   1.000   0.000516   0.000022
        192    17  -75.993957  -76.014817    0.020860   1.000   0.000487   0.000024
        193    17  -75.994633  -76.015351    0.020718   1.000   0.000484   0.000020
        194    16  -75.993931  -76.015623    0.021692   1.000   0.000493   0.000016
        195    16  -75.992675  -76.015511    0.022835   1.000   0.000505   0.000021
        196    16  -75.991525  -76.015353    0.023828   1.000   0.000516   0.000020
        197    17  -75.990848  -76.015103    0.024255   1.000   0.000523   0.000019
        198    16  -75.990677  -76.014816    0.024139   1.000   0.000524   0.000017
        199    17  -75.990856  -76.014571    0.023715   1.000   0.000522   0.000015
        200    17  -75.991192  -76.014397    0.023205   1.000   0.000518   0.000015
        201    16  -75.991531  -76.014292    0.022761   1.000   0.000513   0.000014
        202    16  -75.991786  -76.014235    0.022450   1.000   0.000509   0.000012
        203    17  -75.991918  -76.014198    0.022280   1.000   0.000505   0.000011
        204    17  -75.991931  -76.014149    0.022218   1.000   0.000503   0.000009
        205    16  -75.991851  -76.014067    0.022216   1.000   0.000503   0.000009
        206    17  -75.991718  -76.013938    0.022220   1.000   0.000503   0.000009
        207    16  -75.991576  -76.013761    0.022185   1.000   0.000504   0.000009
        208    17  -75.991466  -76.013546    0.022079   1.000   0.000505   0.000009
        209    17  -75.991418  -76.013310    0.021892   1.000   0.000506   0.000010
        210    16  -75.991536  -76.013074    0.021537   1.000   0.000503   0.000022
        211    17  -75.992420  -76.013206    0.020786   1.000   0.000487   0.000023
        212    17  -75.992500  -76.013633    0.021133   1.000   0.000484   0.000021
        213    16  -75.992454  -76.013886    0.021432   1.000   0.000483   0.000019
        214    16  -75.992297  -76.014035    0.021739   1.000   0.000484   0.000017
        215    16  -75.992105  -76.014097    0.021992   1.000   0.000485   0.000016
        216    17  -75.991945  -76.014097    0.022152   1.000   0.000486   0.000014
        217    16  -75.991848  -76.014060    0.022212   1.000   0.000486   0.000012
        218    17  -75.991814  -76.013999    0.022184   1.000   0.000485   0.000010
        219    17  -75.991828  -76.013920    0.022092   1.000   0.000483   0.000008
        220    16  -75.991865  -76.013826    0.021960   1.000   0.000481   0.000008
        221    16  -75.991905  -76.013715    0.021810   1.000   0.000479   0.000007
        222    17  -75.991934  -76.013590    0.021656   1.000   0.000478   0.000008
        223    17  -75.991946  -76.013454    0.021508   1.000   0.000476   0.000009
        224    16  -75.991946  -76.013312    0.021366   1.000   0.000475   0.000012
        225    16  -75.991899  -76.013285    0.021386   1.000   0.000476   0.000012
        226    17  -75.991868  -76.013220    0.021353   1.000   0.000477   0.000012
        227    17  -75.991862  -76.013137    0.021274   1.000   0.000478   0.000012
        228    16  -75.991861  -76.013088    0.021227   1.000   0.000479   0.000011
        229    16  -75.991859  -76.013068    0.021210   1.000   0.000479   0.000010
        230    17  -75.991856  -76.013061    0.021205   1.000   0.000480   0.000009
        231    17  -75.992337  -76.013051    0.020714   1.000   0.000470   0.000010
        232    17  -75.993280  -76.013102    0.019822   1.000   0.000449   0.000017
        233    17  -75.993445  -76.013259    0.019814   1.000   0.000442   0.000018
        234    16  -75.993636  -76.013372    0.019735   1.000   0.000436   0.000020
        235    16  -75.993829  -76.013467    0.019638   1.000   0.000431   0.000021
        236    16  -75.994024  -76.013573    0.019549   1.000   0.000427   0.000022
        237    17  -75.994212  -76.013705    0.019493   1.000   0.000423   0.000023
        238    17  -75.994856  -76.013863    0.019007   1.000   0.000409   0.000022
        239    16  -75.995240  -76.014142    0.018903   1.000   0.000397   0.000018
        240    16  -75.995304  -76.014418    0.019114   1.000   0.000391   0.000014
        241    17  -75.995137  -76.014599    0.019462   1.000   0.000389   0.000011
        242    17  -75.994833  -76.014616    0.019783   1.000   0.000389   0.000015
        243    16  -75.994028  -76.014790    0.020762   1.000   0.000401   0.000012
        244    16  -75.993240  -76.014552    0.021312   1.000   0.000410   0.000011
        245    17  -75.992884  -76.014114    0.021231   1.000   0.000413   0.000012
        246    17  -75.994005  -76.013645    0.019640   1.000   0.000389   0.000022
        247    17  -75.994144  -76.013379    0.019235   1.000   0.000383   0.000020
        248    16  -75.994343  -76.013145    0.018802   1.000   0.000379   0.000020
        249    16  -75.994513  -76.012940    0.018427   1.000   0.000379   0.000019
        250    16  -75.994614  -76.012774    0.018160   1.000   0.000380   0.000019
        251    16  -75.994620  -76.012675    0.018055   1.000   0.000380   0.000023
        252    17  -75.994836  -76.012874    0.018038   1.000   0.000376   0.000026
        253    17  -75.995459  -76.013172    0.017713   1.000   0.000363   0.000024
        254    16  -75.995672  -76.013511    0.017840   1.000   0.000355   0.000021
        255    16  -75.995543  -76.013797    0.018254   1.000   0.000354   0.000017
        256    17  -75.995222  -76.013946    0.018724   1.000   0.000358   0.000012
        257    17  -75.994831  -76.013947    0.019115   1.000   0.000364   0.000009
        258    16  -75.994452  -76.013825    0.019373   1.000   0.000370   0.000008
        259    17  -75.994133  -76.013617    0.019484   1.000   0.000374   0.000010
        260    16  -75.993909  -76.013356    0.019448   1.000   0.000376   0.000011
        261    17  -75.993801  -76.013074    0.019273   1.000   0.000376   0.000012
        262    17  -75.993819  -76.012796    0.018977   1.000   0.000374   0.000012
        263    16  -75.994087  -76.012542    0.018455   1.000   0.000367   0.000011
        264    17  -75.994961  -76.012356    0.017395   1.000   0.000346   0.000016
        265    17  -75.995276  -76.012339    0.017063   1.000   0.000337   0.000014
        266    16  -75.995642  -76.012314    0.016673   1.000   0.000330   0.000013
        267    16  -75.995994  -76.012322    0.016327   1.000   0.000323   0.000011
        268    16  -75.996274  -76.012367    0.016093   1.000   0.000319   0.000009
        269    17  -75.996429  -76.012432    0.016002   1.000   0.000317   0.000008
        270    16  -75.996439  -76.012482    0.016043   1.000   0.000316   0.000008
        271    17  -75.996326  -76.012486    0.016160   1.000   0.000317   0.000008
        272    17  -75.996147  -76.012429    0.016282   1.000   0.000319   0.000008
        273    16  -75.995970  -76.012317    0.016347   1.000   0.000321   0.000007
        274    16  -75.995853  -76.012172    0.016319   1.000   0.000323   0.000007
        275    17  -75.995826  -76.012028    0.016202   1.000   0.000324   0.000007
        276    17  -75.995893  -76.011916    0.016024   1.000   0.000324   0.000006
        277    16  -75.996032  -76.011860    0.015829   1.000   0.000324   0.000006
        278    16  -75.996210  -76.011870    0.015660   1.000   0.000322   0.000006
        279    17  -75.996394  -76.011945    0.015551   1.000   0.000321   0.000006
        280    17  -75.996556  -76.012072    0.015515   1.000   0.000319   0.000006
        281    16  -75.996678  -76.012231    0.015553   1.000   0.000317   0.000005
        282    16  -75.996754  -76.012404    0.015649   1.000   0.000316   0.000005
        283    17  -75.996787  -76.012569    0.015782   1.000   0.000314   0.000005
        284    17  -75.996786  -76.012712    0.015926   1.000   0.000313   0.000005
        285    16  -75.996760  -76.012822    0.016061   1.000   0.000312   0.000005
        286    17  -75.996722  -76.012892    0.016171   1.000   0.000312   0.000005
        287    16  -75.996679  -76.012923    0.016244   1.000   0.000311   0.000005
        288    17  -75.996638  -76.012916    0.016278   1.000   0.000310   0.000005
        289    17  -75.996603  -76.012875    0.016272   1.000   0.000309   0.000005
        290    16  -75.996576  -76.012807    0.016231   1.000   0.000309   0.000005
        291    16  -75.996558  -76.012719    0.016160   1.000   0.000308   0.000004
        292    17  -75.996550  -76.012616    0.016065   1.000   0.000308   0.000004
        293    17  -75.996553  -76.012505    0.015952   1.000   0.000307   0.000004
        294    16  -75.996565  -76.012392    0.015827   1.000   0.000307   0.000004
        295    16  -75.996589  -76.012283    0.015694   1.000   0.000306   0.000004
        296    17  -75.996624  -76.012181    0.015558   1.000   0.000306   0.000004
        297    17  -75.996669  -76.012091    0.015423   1.000   0.000305   0.000004
        298    16  -75.996723  -76.012016    0.015293   1.000   0.000305   0.000004
        299    16  -75.996784  -76.011956    0.015172   1.000   0.000304   0.000004
        300    17  -75.996850  -76.011914    0.015064   1.000   0.000303   0.000004
        301    17  -75.996917  -76.011888    0.014971   1.000   0.000302   0.000004
        302    16  -75.996985  -76.011878    0.014894   1.000   0.000302   0.000004
        303    16  -75.997049  -76.011882    0.014834   1.000   0.000301   0.000004
        304    17  -75.997108  -76.011898    0.014791   1.000   0.000300   0.000004
        305    17  -75.997161  -76.011923    0.014763   1.000   0.000300   0.000004
        306    16  -75.997207  -76.011954    0.014747   1.000   0.000299   0.000004
        307    16  -75.997246  -76.011988    0.014743   1.000   0.000298   0.000004
        308    17  -75.997279  -76.012024    0.014745   1.000   0.000298   0.000004
        309    17  -75.997307  -76.012058    0.014751   1.000   0.000297   0.000004
        310    16  -75.998264  -76.012090    0.013827   1.000   0.000292   0.000005
        311    17  -76.001568  -76.012152    0.010584   1.000   0.000277   0.000011
        312    17  -76.002541  -76.012322    0.009781   1.000   0.000274   0.000009
        313    16  -76.002728  -76.012478    0.009749   1.000   0.000274   0.000006
        314    16  -76.002444  -76.012539    0.010094   1.000   0.000277   0.000005
        315    16  -76.002063  -76.012516    0.010452   1.000   0.000279   0.000004
        316    16  -76.001809  -76.012447    0.010639   1.000   0.000280   0.000004
        317    17  -76.001733  -76.012367    0.010634   1.000   0.000280   0.000004
        318    17  -76.001789  -76.012297    0.010508   1.000   0.000278   0.000004
        319    16  -76.001900  -76.012245    0.010344   1.000   0.000277   0.000004
        320    16  -76.002010  -76.012210    0.010200   1.000   0.000275   0.000004
        321    17  -76.002088  -76.012187    0.010099   1.000   0.000273   0.000004
        322    17  -76.002127  -76.012169    0.010042   1.000   0.000272   0.000003
        323    16  -76.002134  -76.012147    0.010013   1.000   0.000271   0.000003
        324    16  -76.002121  -76.012117    0.009996   1.000   0.000271   0.000003
        325    17  -76.002100  -76.012076    0.009976   1.000   0.000271   0.000003
        326    17  -76.002082  -76.012024    0.009942   1.000   0.000271   0.000003
        327    16  -76.002075  -76.011965    0.009890   1.000   0.000271   0.000003
        328    16  -76.002083  -76.011906    0.009822   1.000   0.000271   0.000003
        329    17  -76.002107  -76.011850    0.009743   1.000   0.000271   0.000003
        330    17  -76.002143  -76.011803    0.009660   1.000   0.000270   0.000003
        331    16  -76.002188  -76.011768    0.009580   1.000   0.000270   0.000003
        332    16  -76.002234  -76.011744    0.009509   1.000   0.000269   0.000003
        333    17  -76.002280  -76.011730    0.009451   1.000   0.000268   0.000003
        334    17  -76.002320  -76.011725    0.009405   1.000   0.000268   0.000003
        335    16  -76.002356  -76.011726    0.009370   1.000   0.000268   0.000003
        336    16  -76.002387  -76.011731    0.009344   1.000   0.000267   0.000003
        337    17  -76.002415  -76.011739    0.009324   1.000   0.000267   0.000003
        338    17  -76.005179  -76.011749    0.006569   1.000   0.000252   0.000010
        339    17  -76.006615  -76.011868    0.005253   1.000   0.000245   0.000009
        340    17  -76.006941  -76.012058    0.005117   1.000   0.000245   0.000007
        341    16  -76.006736  -76.012173    0.005437   1.000   0.000248   0.000005
        342    16  -76.006360  -76.012169    0.005809   1.000   0.000252   0.000004
        343    16  -76.006096  -76.012087    0.005992   1.000   0.000254   0.000003
        344    17  -76.006037  -76.011990    0.005954   1.000   0.000253   0.000004
        345    16  -76.006134  -76.011922    0.005788   1.000   0.000251   0.000004
        346    17  -76.006286  -76.011895    0.005609   1.000   0.000249   0.000003
        347    17  -76.006411  -76.011903    0.005491   1.000   0.000247   0.000003
        348    16  -76.006473  -76.011926    0.005453   1.000   0.000245   0.000003
        349    16  -76.006474  -76.011947    0.005473   1.000   0.000245   0.000003
        350    17  -76.006438  -76.011955    0.005517   1.000   0.000245   0.000003
        351    17  -76.006393  -76.011946    0.005553   1.000   0.000245   0.000003
        352    16  -76.006356  -76.011920    0.005564   1.000   0.000246   0.000003
        353    16  -76.006336  -76.011880    0.005544   1.000   0.000246   0.000003
        354    17  -76.006334  -76.011832    0.005498   1.000   0.000246   0.000003
        355    17  -76.006346  -76.011782    0.005436   1.000   0.000246   0.000003
        356    16  -76.006693  -76.011734    0.005041   1.000   0.000238   0.000006
        357    17  -76.006786  -76.011753    0.004967   1.000   0.000234   0.000006
        358    17  -76.006785  -76.011780    0.004995   1.000   0.000233   0.000005
        359    16  -76.006763  -76.011789    0.005025   1.000   0.000233   0.000004
        360    16  -76.006737  -76.011772    0.005034   1.000   0.000234   0.000004
        361    16  -76.006714  -76.011731    0.005016   1.000   0.000234   0.000003
        362    17  -76.006699  -76.011677    0.004978   1.000   0.000235   0.000003
        363    17  -76.006695  -76.011622    0.004927   1.000   0.000235   0.000003
        364    16  -76.006709  -76.011577    0.004868   1.000   0.000234   0.000003
        365    16  -76.006742  -76.011548    0.004807   1.000   0.000233   0.000003
        366    17  -76.006787  -76.011538    0.004750   1.000   0.000233   0.000003
        367    17  -76.006836  -76.011543    0.004707   1.000   0.000232   0.000003
        368    16  -76.006878  -76.011560    0.004682   1.000   0.000231   0.000003
        369    16  -76.006906  -76.011579    0.004674   1.000   0.000231   0.000003
        370    17  -76.006918  -76.011597    0.004679   1.000   0.000231   0.000003
        371    17  -76.006918  -76.011609    0.004691   1.000   0.000230   0.000003
        372    16  -76.006911  -76.011613    0.004702   1.000   0.000230   0.000003
        373    16  -76.006904  -76.011611    0.004707   1.000   0.000231   0.000003
        374    17  -76.006899  -76.011604    0.004705   1.000   0.000230   0.000003
        375    17  -76.006899  -76.011595    0.004696   1.000   0.000230   0.000003
        376    16  -76.006904  -76.011586    0.004682   1.000   0.000230   0.000003
        377    16  -76.006913  -76.011578    0.004665   1.000   0.000230   0.000003
        378    17  -76.006924  -76.011573    0.004649   1.000   0.000229   0.000003
        379    17  -76.006935  -76.011569    0.004634   1.000   0.000229   0.000003
        380    16  -76.006946  -76.011567    0.004622   1.000   0.000229   0.000003
        381    16  -76.006955  -76.011566    0.004611   1.000   0.000228   0.000003
        382    17  -76.006963  -76.011564    0.004601   1.000   0.000228   0.000003
        383    17  -76.006969  -76.011561    0.004592   1.000   0.000228   0.000003
        384    16  -76.006974  -76.011556    0.004582   1.000   0.000228   0.000003
        385    16  -76.006978  -76.011549    0.004571   1.000   0.000228   0.000003
        386    17  -76.006983  -76.011541    0.004558   1.000   0.000227   0.000003
        387    17  -76.007712  -76.011531    0.003819   1.000   0.000213   0.000010
        388    17  -76.008065  -76.011632    0.003567   1.000   0.000205   0.000011
        389    17  -76.008110  -76.011766    0.003656   1.000   0.000203   0.000009
        390    16  -76.008102  -76.011868    0.003767   1.000   0.000202   0.000006
        391    16  -76.008051  -76.011922    0.003871   1.000   0.000202   0.000005
        392    16  -76.007972  -76.011923    0.003951   1.000   0.000203   0.000004
        393    16  -76.007880  -76.011878    0.003998   1.000   0.000204   0.000004
        394    17  -76.007797  -76.011801    0.004005   1.000   0.000205   0.000003
        395    16  -76.007741  -76.011710    0.003968   1.000   0.000205   0.000003
        396    17  -76.007724  -76.011619    0.003895   1.000   0.000205   0.000003
        397    17  -76.007744  -76.011541    0.003797   1.000   0.000204   0.000003
        398    16  -76.007841  -76.011481    0.003640   1.000   0.000202   0.000003
        399    17  -76.007977  -76.011451    0.003474   1.000   0.000199   0.000003
        400    17  -76.008043  -76.011437    0.003394   1.000   0.000197   0.000003
        401    16  -76.008079  -76.011408    0.003329   1.000   0.000195   0.000003
        402    16  -76.008097  -76.011376    0.003279   1.000   0.000195   0.000003
        403    16  -76.008108  -76.011341    0.003234   1.000   0.000194   0.000003
        404    17  -76.008118  -76.011307    0.003189   1.000   0.000195   0.000003
        405    17  -76.008129  -76.011275    0.003145   1.000   0.000195   0.000003
        406    16  -76.008140  -76.011245    0.003104   1.000   0.000195   0.000003
        407    16  -76.008154  -76.011233    0.003078   1.000   0.000195   0.000003
        408    16  -76.008553  -76.011266    0.002712   1.000   0.000188   0.000006
        409    17  -76.008945  -76.011320    0.002375   1.000   0.000180   0.000008
        410    17  -76.008950  -76.011422    0.002472   1.000   0.000178   0.000007
        411    16  -76.008845  -76.011495    0.002649   1.000   0.000179   0.000005
        412    16  -76.008706  -76.011520    0.002814   1.000   0.000181   0.000004
        413    16  -76.008605  -76.011501    0.002896   1.000   0.000182   0.000003
        414    16  -76.008572  -76.011456    0.002885   1.000   0.000183   0.000003
        415    17  -76.008599  -76.011410    0.002810   1.000   0.000183   0.000003
        416    16  -76.008661  -76.011378    0.002716   1.000   0.000182   0.000003
        417    17  -76.008729  -76.011367    0.002638   1.000   0.000181   0.000003
        418    17  -76.008780  -76.011375    0.002594   1.000   0.000179   0.000003
        419    16  -76.008806  -76.011393    0.002587   1.000   0.000178   0.000003
        420    16  -76.008853  -76.011412    0.002559   1.000   0.000177   0.000003
        421    17  -76.009204  -76.011432    0.002228   1.000   0.000169   0.000007
        422    17  -76.009166  -76.011506    0.002340   1.000   0.000168   0.000006
        423    16  -76.009103  -76.011532    0.002430   1.000   0.000167   0.000005
        424    16  -76.009047  -76.011527    0.002480   1.000   0.000167   0.000005
        425    16  -76.009021  -76.011499    0.002478   1.000   0.000167   0.000004
        426    16  -76.009023  -76.011456    0.002433   1.000   0.000167   0.000003
        427    16  -76.009036  -76.011404    0.002368   1.000   0.000167   0.000003
        428    17  -76.009049  -76.011349    0.002299   1.000   0.000166   0.000003
        429    17  -76.009058  -76.011292    0.002235   1.000   0.000166   0.000003
        430    16  -76.009116  -76.011238    0.002122   1.000   0.000165   0.000003
        431    17  -76.009316  -76.011200    0.001884   1.000   0.000161   0.000005
        432    17  -76.009307  -76.011205    0.001897   1.000   0.000160   0.000004
        433    16  -76.009306  -76.011203    0.001897   1.000   0.000160   0.000003
        434    16  -76.009313  -76.011193    0.001880   1.000   0.000160   0.000003
        435    16  -76.009322  -76.011175    0.001853   1.000   0.000160   0.000003
        436    16  -76.009328  -76.011153    0.001825   1.000   0.000160   0.000003
        437    17  -76.009326  -76.011131    0.001805   1.000   0.000160   0.000002
        438    16  -76.009321  -76.011110    0.001789   1.000   0.000160   0.000002
        439    17  -76.009320  -76.011095    0.001774   1.000   0.000159   0.000003
        440    17  -76.009327  -76.011086    0.001759   1.000   0.000159   0.000002
        441    16  -76.009341  -76.011086    0.001745   1.000   0.000159   0.000002
        442    16  -76.009358  -76.011094    0.001735   1.000   0.000159   0.000002
        443    16  -76.009374  -76.011107    0.001733   1.000   0.000158   0.000002
        444    16  -76.009386  -76.011123    0.001737   1.000   0.000158   0.000002
        445    17  -76.009392  -76.011138    0.001746   1.000   0.000158   0.000002
        446    17  -76.009393  -76.011151    0.001758   1.000   0.000158   0.000002
        447    16  -76.009391  -76.011161    0.001770   1.000   0.000158   0.000002
        448    16  -76.009387  -76.011165    0.001778   1.000   0.000158   0.000002
        449    16  -76.009383  -76.011166    0.001783   1.000   0.000158   0.000002
        450    17  -76.009379  -76.011163    0.001784   1.000   0.000158   0.000002
        451    16  -76.009377  -76.011158    0.001781   1.000   0.000158   0.000002
        452    17  -76.009375  -76.011150    0.001775   1.000   0.000158   0.000002
        453    17  -76.009374  -76.011143    0.001768   1.000   0.000157   0.000002
        454    16  -76.009375  -76.011135    0.001760   1.000   0.000157   0.000002
        455    16  -76.009376  -76.011127    0.001751   1.000   0.000157   0.000002
        456    16  -76.009377  -76.011120    0.001742   1.000   0.000157   0.000002
        457    17  -76.009379  -76.011113    0.001734   1.000   0.000156   0.000002
        458    16  -76.009379  -76.011105    0.001726   1.000   0.000156   0.000002
        459    17  -76.009379  -76.011098    0.001718   1.000   0.000156   0.000002
        460    17  -76.009379  -76.011089    0.001710   1.000   0.000156   0.000002
        461    16  -76.009378  -76.011079    0.001702   1.000   0.000156   0.000002
        462    16  -76.009377  -76.011069    0.001692   1.000   0.000156   0.000002
        463    16  -76.009376  -76.011058    0.001682   1.000   0.000156   0.000002
        464    17  -76.009377  -76.011047    0.001670   1.000   0.000155   0.000003
        465    16  -76.009397  -76.011079    0.001682   1.000   0.000154   0.000016
        466    17  -76.009510  -76.011358    0.001848   1.000   0.000153   0.000010
        467    17  -76.009486  -76.011538    0.002052   1.000   0.000152   0.000009
        468    16  -76.009371  -76.011641    0.002270   1.000   0.000152   0.000008
        469    16  -76.009225  -76.011661    0.002437   1.000   0.000153   0.000006
        470    16  -76.009094  -76.011617    0.002523   1.000   0.000154   0.000004
        471    16  -76.009002  -76.011530    0.002528   1.000   0.000154   0.000004
        472    17  -76.008956  -76.011422    0.002466   1.000   0.000154   0.000004
        473    17  -76.008950  -76.011309    0.002359   1.000   0.000153   0.000004
        474    16  -76.008973  -76.011206    0.002233   1.000   0.000152   0.000004
        475    16  -76.009011  -76.011119    0.002108   1.000   0.000152   0.000004
        476    16  -76.009053  -76.011050    0.001997   1.000   0.000151   0.000003
        477    17  -76.009090  -76.010999    0.001908   1.000   0.000150   0.000003
        478    17  -76.009119  -76.010960    0.001841   1.000   0.000150   0.000003
        479    16  -76.009138  -76.010930    0.001792   1.000   0.000150   0.000002
        480    16  -76.009147  -76.010904    0.001757   1.000   0.000150   0.000002
        481    16  -76.009149  -76.010879    0.001730   1.000   0.000150   0.000002
        482    17  -76.009146  -76.010854    0.001708   1.000   0.000151   0.000003
        483    17  -76.009142  -76.010830    0.001688   1.000   0.000151   0.000003
        484    16  -76.009139  -76.010806    0.001668   1.000   0.000151   0.000003
        485    16  -76.009138  -76.010786    0.001648   1.000   0.000151   0.000002
        486    16  -76.009141  -76.010771    0.001630   1.000   0.000151   0.000002
        487    17  -76.009148  -76.010761    0.001613   1.000   0.000151   0.000002
        488    17  -76.009159  -76.010759    0.001601   1.000   0.000151   0.000002
        489    16  -76.009172  -76.010764    0.001593   1.000   0.000150   0.000002
        490    16  -76.009545  -76.010777    0.001231   1.000   0.000145   0.000006
        491    17  -76.009660  -76.010864    0.001204   1.000   0.000143   0.000008
        492    17  -76.009505  -76.011045    0.001540   1.000   0.000144   0.000009
        493    16  -76.009213  -76.011209    0.001995   1.000   0.000146   0.000008
        494    16  -76.008987  -76.011264    0.002277   1.000   0.000149   0.000009
        495    16  -76.008869  -76.011308    0.002440   1.000   0.000151   0.000009
        496    16  -76.008835  -76.011361    0.002526   1.000   0.000152   0.000009
        497    16  -76.008834  -76.011428    0.002594   1.000   0.000152   0.000008
        498    17  -76.008819  -76.011503    0.002684   1.000   0.000152   0.000007
        499    17  -76.008766  -76.011572    0.002807   1.000   0.000151   0.000006
        500    16  -76.008679  -76.011622    0.002943   1.000   0.000151   0.000005
        501    16  -76.008576  -76.011639    0.003063   1.000   0.000151   0.000004
        502    16  -76.008479  -76.011618    0.003139   1.000   0.000151   0.000003
        503    16  -76.008403  -76.011560    0.003157   1.000   0.000151   0.000004
        504    16  -76.008356  -76.011470    0.003113   1.000   0.000151   0.000004
        505    17  -76.008339  -76.011354    0.003015   1.000   0.000150   0.000005
        506    17  -76.008348  -76.011221    0.002873   1.000   0.000149   0.000005
        507    16  -76.008376  -76.011078    0.002702   1.000   0.000149   0.000005
        508    16  -76.008420  -76.010934    0.002514   1.000   0.000148   0.000005
        509    16  -76.008735  -76.010794    0.002059   1.000   0.000142   0.000006
        510    17  -76.009028  -76.010712    0.001684   1.000   0.000136   0.000008
        511    17  -76.009023  -76.010677    0.001654   1.000   0.000135   0.000008
        512    16  -76.009023  -76.010630    0.001607   1.000   0.000134   0.000007
        513    16  -76.009049  -76.010583    0.001534   1.000   0.000134   0.000007
        514    16  -76.009087  -76.010546    0.001458   1.000   0.000134   0.000006
        515    16  -76.009111  -76.010523    0.001412   1.000   0.000134   0.000006
        516    16  -76.009104  -76.010513    0.001409   1.000   0.000135   0.000005
        517    17  -76.009072  -76.010513    0.001441   1.000   0.000135   0.000005
        518    17  -76.009034  -76.010522    0.001488   1.000   0.000136   0.000005
        519    16  -76.009007  -76.010541    0.001534   1.000   0.000137   0.000005
        520    16  -76.009000  -76.010573    0.001573   1.000   0.000137   0.000004
        521    16  -76.009012  -76.010620    0.001608   1.000   0.000137   0.000004
        522    17  -76.009034  -76.010680    0.001646   1.000   0.000137   0.000003
        523    16  -76.009056  -76.010749    0.001693   1.000   0.000136   0.000002
        524    17  -76.009072  -76.010820    0.001749   1.000   0.000136   0.000003
        525    17  -76.009084  -76.010903    0.001820   1.000   0.000135   0.000006
        526    16  -76.009111  -76.011047    0.001936   1.000   0.000134   0.000006
        527    16  -76.009121  -76.011152    0.002031   1.000   0.000134   0.000005
        528    16  -76.009122  -76.011240    0.002117   1.000   0.000133   0.000005
        529    16  -76.009125  -76.011305    0.002181   1.000   0.000132   0.000004
        530    17  -76.009129  -76.011348    0.002220   1.000   0.000132   0.000004
        531    17  -76.009130  -76.011369    0.002239   1.000   0.000131   0.000004
        532    16  -76.009124  -76.011368    0.002244   1.000   0.000130   0.000003
        533    16  -76.009106  -76.011346    0.002240   1.000   0.000130   0.000003
        534    16  -76.009077  -76.011304    0.002227   1.000   0.000130   0.000003
        535    17  -76.009039  -76.011245    0.002206   1.000   0.000129   0.000003
        536    16  -76.008996  -76.011172    0.002175   1.000   0.000129   0.000003
        537    17  -76.008952  -76.011088    0.002136   1.000   0.000129   0.000003
        538    17  -76.008908  -76.010997    0.002090   1.000   0.000130   0.000003
        539    16  -76.008867  -76.010904    0.002037   1.000   0.000130   0.000003
        540    16  -76.008832  -76.010812    0.001980   1.000   0.000130   0.000003
        541    16  -76.009027  -76.010723    0.001696   1.000   0.000127   0.000004
        542    17  -76.009145  -76.010684    0.001539   1.000   0.000126   0.000005
        543    17  -76.009086  -76.010664    0.001579   1.000   0.000127   0.000004
        544    16  -76.008965  -76.010630    0.001664   1.000   0.000128   0.000003
        545    16  -76.008875  -76.010574    0.001699   1.000   0.000122   0.000004
        546    16  -76.008739  -76.010580    0.001840   1.000   0.000121   0.000005
        547    16  -76.008510  -76.010612    0.002101   1.000   0.000123   0.000003
        548    17  -76.008410  -76.010521    0.002111   1.000   0.000124   0.000002
        549    17  -76.008458  -76.010460    0.002002   1.000   0.000123   0.000002
        550    16  -76.008582  -76.010439    0.001857   1.000   0.000122   0.000002
        551    16  -76.008708  -76.010450    0.001742   1.000   0.000122   0.000002
        552    17  -76.008801  -76.010483    0.001682   1.000   0.000121   0.000002
        553    17  -76.008853  -76.010526    0.001672   1.000   0.000121   0.000002
        554    16  -76.008876  -76.010572    0.001696   1.000   0.000120   0.000002
        555    16  -76.008881  -76.010618    0.001737   1.000   0.000120   0.000002
        556    17  -76.008877  -76.010662    0.001785   1.000   0.000120   0.000002
        557    17  -76.008868  -76.010704    0.001835   1.000   0.000120   0.000002
        558    16  -76.008857  -76.010742    0.001885   1.000   0.000120   0.000002
        559    16  -76.008842  -76.010776    0.001934   1.000   0.000120   0.000002
        560    17  -76.008824  -76.010804    0.001980   1.000   0.000120   0.000002
        561    17  -76.008804  -76.010825    0.002022   1.000   0.000120   0.000002
        562    16  -76.008781  -76.010841    0.002060   1.000   0.000120   0.000002
        563    16  -76.008757  -76.010850    0.002093   1.000   0.000120   0.000002
        564    17  -76.008733  -76.010854    0.002120   1.000   0.000120   0.000002
        565    17  -76.008681  -76.010870    0.002190   1.000   0.000120   0.000009
        566    16  -76.008547  -76.011017    0.002470   1.000   0.000122   0.000005
        567    17  -76.008812  -76.011053    0.002241   1.000   0.000117   0.000008
        568    17  -76.008763  -76.011123    0.002360   1.000   0.000116   0.000008
        569    16  -76.008776  -76.011161    0.002385   1.000   0.000115   0.000009
        570    16  -76.008800  -76.011182    0.002382   1.000   0.000114   0.000010
        571    16  -76.008811  -76.011180    0.002369   1.000   0.000114   0.000010
        572    16  -76.008819  -76.011152    0.002332   1.000   0.000113   0.000009
        573    16  -76.008804  -76.011100    0.002297   1.000   0.000113   0.000007
        574    17  -76.008776  -76.011024    0.002248   1.000   0.000113   0.000006
        575    17  -76.008749  -76.010932    0.002183   1.000   0.000113   0.000004
        576    16  -76.008737  -76.010835    0.002098   1.000   0.000112   0.000003
        577    16  -76.008731  -76.010744    0.002013   1.000   0.000112   0.000003
        578    16  -76.008729  -76.010667    0.001938   1.000   0.000112   0.000004
        579    17  -76.008731  -76.010606    0.001875   1.000   0.000112   0.000005
        580    17  -76.008734  -76.010565    0.001831   1.000   0.000112   0.000005
        581    16  -76.008744  -76.010543    0.001798   1.000   0.000112   0.000005
        582    16  -76.008733  -76.010538    0.001805   1.000   0.000112   0.000005
        583    17  -76.008712  -76.010541    0.001829   1.000   0.000112   0.000005
        584    16  -76.008684  -76.010545    0.001861   1.000   0.000113   0.000004
        585    17  -76.008655  -76.010547    0.001892   1.000   0.000113   0.000003
        586    17  -76.008629  -76.010542    0.001913   1.000   0.000113   0.000003
        587    16  -76.008875  -76.010528    0.001653   1.000   0.000107   0.000005
        588    17  -76.009123  -76.010560    0.001437   1.000   0.000100   0.000008
        589    17  -76.009170  -76.010610    0.001440   1.000   0.000097   0.000008
        590    16  -76.009229  -76.010624    0.001395   1.000   0.000094   0.000008
        591    16  -76.009275  -76.010618    0.001343   1.000   0.000093   0.000008
        592    15  -76.009301  -76.010596    0.001295   1.000   0.000092   0.000007
        593    16  -76.009317  -76.010563    0.001247   1.000   0.000091   0.000006
        594    17  -76.009331  -76.010527    0.001196   1.000   0.000091   0.000005
        595    17  -76.009350  -76.010493    0.001142   1.000   0.000092   0.000004
        596    16  -76.009374  -76.010465    0.001091   1.000   0.000092   0.000004
        597    16  -76.009399  -76.010447    0.001049   1.000   0.000092   0.000004
        598    17  -76.009419  -76.010441    0.001022   1.000   0.000093   0.000004
        599    16  -76.009432  -76.010447    0.001015   1.000   0.000093   0.000004
        600    17  -76.009435  -76.010465    0.001029   1.000   0.000093   0.000004
        601    17  -76.009430  -76.010494    0.001064   1.000   0.000093   0.000003
        602    16  -76.009417  -76.010533    0.001116   1.000   0.000094   0.000003
        603    16  -76.009397  -76.010579    0.001183   1.000   0.000094   0.000003
        604    16  -76.009371  -76.010630    0.001259   1.000   0.000094   0.000003
        605    17  -76.009341  -76.010681    0.001340   1.000   0.000094   0.000003
        606    17  -76.009309  -76.010728    0.001420   1.000   0.000093   0.000003
        607    16  -76.009276  -76.010767    0.001492   1.000   0.000093   0.000003
        608    16  -76.009244  -76.010795    0.001551   1.000   0.000093   0.000003
        609    16  -76.009215  -76.010808    0.001593   1.000   0.000093   0.000002
        610    17  -76.009192  -76.010807    0.001615   1.000   0.000093   0.000002
        611    17  -76.009176  -76.010792    0.001616   1.000   0.000093   0.000004
        612    16  -76.009123  -76.010822    0.001700   1.000   0.000092   0.000004
        613    16  -76.009075  -76.010822    0.001747   1.000   0.000092   0.000004
        614    16  -76.009043  -76.010791    0.001748   1.000   0.000092   0.000005
        615    17  -76.009015  -76.010740    0.001725   1.000   0.000092   0.000005
        616    17  -76.008981  -76.010673    0.001692   1.000   0.000092   0.000005
        617    16  -76.008946  -76.010595    0.001649   1.000   0.000092   0.000004
        618    16  -76.008921  -76.010513    0.001592   1.000   0.000092   0.000004
        619    16  -76.008915  -76.010435    0.001520   1.000   0.000092   0.000003
        620    17  -76.008930  -76.010367    0.001437   1.000   0.000092   0.000003
        621    17  -76.008961  -76.010313    0.001352   1.000   0.000092   0.000002
        622    16  -76.008999  -76.010274    0.001275   1.000   0.000092   0.000002
        623    16  -76.009037  -76.010249    0.001212   1.000   0.000092   0.000003
        624    17  -76.009070  -76.010238    0.001168   1.000   0.000091   0.000003
        625    16  -76.009097  -76.010239    0.001142   1.000   0.000091   0.000003
        626    17  -76.009116  -76.010250    0.001134   1.000   0.000091   0.000003
        627    17  -76.009130  -76.010272    0.001141   1.000   0.000091   0.000003
        628    16  -76.009141  -76.010302    0.001161   1.000   0.000091   0.000003
        629    16  -76.009149  -76.010339    0.001190   1.000   0.000091   0.000002
        630    17  -76.009154  -76.010382    0.001228   1.000   0.000091   0.000002
        631    17  -76.009156  -76.010429    0.001273   1.000   0.000091   0.000002
        632    16  -76.009154  -76.010477    0.001322   1.000   0.000091   0.000002
        633    16  -76.009150  -76.010524    0.001374   1.000   0.000091   0.000002
        634    17  -76.009142  -76.010569    0.001427   1.000   0.000091   0.000002
        635    17  -76.009132  -76.010609    0.001477   1.000   0.000091   0.000002
        636    16  -76.009120  -76.010643    0.001523   1.000   0.000091   0.000002
        637    16  -76.009106  -76.010670    0.001564   1.000   0.000091   0.000002
        638    17  -76.009092  -76.010689    0.001597   1.000   0.000091   0.000002
        639    17  -76.009078  -76.010700    0.001622   1.000   0.000091   0.000002
        640    16  -76.009064  -76.010703    0.001639   1.000   0.000091   0.000002
        641    16  -76.009052  -76.010699    0.001647   1.000   0.000090   0.000002
        642    17  -76.009041  -76.010687    0.001646   1.000   0.000090   0.000002
        643    17  -76.009031  -76.010670    0.001639   1.000   0.000090   0.000002
        644    16  -76.009023  -76.010648    0.001625   1.000   0.000090   0.000002
        645    16  -76.009015  -76.010622    0.001606   1.000   0.000090   0.000002
        646    17  -76.009009  -76.010593    0.001584   1.000   0.000090   0.000002
        647    17  -76.009004  -76.010563    0.001559   1.000   0.000090   0.000002
        648    16  -76.009000  -76.010532    0.001532   1.000   0.000090   0.000002
        649    17  -76.008996  -76.010501    0.001505   1.000   0.000090   0.000001
        650    16  -76.008993  -76.010471    0.001478   1.000   0.000090   0.000001
        651    17  -76.008991  -76.010442    0.001451   1.000   0.000090   0.000001
        652    17  -76.008990  -76.010415    0.001425   1.000   0.000090   0.000001
        653    16  -76.008991  -76.010390    0.001400   1.000   0.000090   0.000001
        654    16  -76.008992  -76.010368    0.001376   1.000   0.000089   0.000001
        655    17  -76.008995  -76.010348    0.001354   1.000   0.000089   0.000001
        656    17  -76.008999  -76.010332    0.001333   1.000   0.000089   0.000002
        657    16  -76.009005  -76.010319    0.001314   1.000   0.000089   0.000002
        658    16  -76.009013  -76.010309    0.001297   1.000   0.000089   0.000002
        659    17  -76.009022  -76.010304    0.001282   1.000   0.000089   0.000001
        660    17  -76.009034  -76.010303    0.001268   1.000   0.000089   0.000001
        661    16  -76.009052  -76.010307    0.001255   1.000   0.000089   0.000001
        662    17  -76.009062  -76.010316    0.001254   1.000   0.000089   0.000001
        663    16  -76.009073  -76.010328    0.001255   1.000   0.000089   0.000001
        664    17  -76.009083  -76.010343    0.001260   1.000   0.000089   0.000001
        665    17  -76.009091  -76.010361    0.001270   1.000   0.000089   0.000001
        666    16  -76.009096  -76.010381    0.001285   1.000   0.000089   0.000001
        667    16  -76.009099  -76.010403    0.001304   1.000   0.000089   0.000001
        668    17  -76.009099  -76.010426    0.001327   1.000   0.000089   0.000001
        669    17  -76.009242  -76.010449    0.001207   1.000   0.000086   0.000002
        670    17  -76.009519  -76.010495    0.000976   1.000   0.000082   0.000005
        671    17  -76.009526  -76.010578    0.001052   1.000   0.000080   0.000006
        672    16  -76.009528  -76.010641    0.001113   1.000   0.000079   0.000006
        673    16  -76.009532  -76.010683    0.001151   1.000   0.000078   0.000005
        674    16  -76.009538  -76.010706    0.001168   1.000   0.000077   0.000004
        675    16  -76.009534  -76.010711    0.001177   1.000   0.000077   0.000003
        676    17  -76.009516  -76.010701    0.001184   1.000   0.000076   0.000002
        677    17  -76.009484  -76.010674    0.001190   1.000   0.000076   0.000002
        678    16  -76.009446  -76.010635    0.001189   1.000   0.000076   0.000002
        679    16  -76.009409  -76.010586    0.001177   1.000   0.000077   0.000003
        680    17  -76.009381  -76.010534    0.001154   1.000   0.000077   0.000003
        681    17  -76.009368  -76.010485    0.001117   1.000   0.000077   0.000003
        682    16  -76.009365  -76.010443    0.001078   1.000   0.000078   0.000002
        683    16  -76.009367  -76.010408    0.001041   1.000   0.000078   0.000002
        684    17  -76.009374  -76.010381    0.001007   1.000   0.000078   0.000001
        685    17  -76.009383  -76.010360    0.000977   1.000   0.000078   0.000001
        686    16  -76.009392  -76.010343    0.000950   1.000   0.000078   0.000002
        687    16  -76.009401  -76.010327    0.000927   1.000   0.000077   0.000002
        688    17  -76.009407  -76.010313    0.000905   1.000   0.000077   0.000002
        689    17  -76.009412  -76.010298    0.000886   1.000   0.000077   0.000002
        690    16  -76.009417  -76.010284    0.000867   1.000   0.000077   0.000002
        691    16  -76.009421  -76.010270    0.000849   1.000   0.000077   0.000001
        692    17  -76.009498  -76.010258    0.000760   1.000   0.000075   0.000004
        693    17  -76.009662  -76.010331    0.000668   1.000   0.000072   0.000006
        694    17  -76.009592  -76.010424    0.000832   1.000   0.000072   0.000007
        695    16  -76.009549  -76.010492    0.000943   1.000   0.000072   0.000007
        696    16  -76.009518  -76.010559    0.001041   1.000   0.000072   0.000008
        697    16  -76.009489  -76.010619    0.001131   1.000   0.000073   0.000008
        698    16  -76.009465  -76.010671    0.001205   1.000   0.000073   0.000008
        699    17  -76.009444  -76.010712    0.001268   1.000   0.000073   0.000007
        700    17  -76.009423  -76.010741    0.001318   1.000   0.000073   0.000007
        701    16  -76.009401  -76.010756    0.001355   1.000   0.000072   0.000006
        702    16  -76.009352  -76.010776    0.001424   1.000   0.000072   0.000004
        703    16  -76.009299  -76.010768    0.001469   1.000   0.000072   0.000003
        704    17  -76.009257  -76.010730    0.001473   1.000   0.000071   0.000006
        705    17  -76.009248  -76.010754    0.001506   1.000   0.000070   0.000005
        706    16  -76.009244  -76.010739    0.001495   1.000   0.000069   0.000005
        707    16  -76.009244  -76.010707    0.001463   1.000   0.000068   0.000005
        708    16  -76.009248  -76.010662    0.001414   1.000   0.000068   0.000005
        709    17  -76.009255  -76.010608    0.001353   1.000   0.000068   0.000004
        710    17  -76.009265  -76.010547    0.001282   1.000   0.000067   0.000004
        711    16  -76.009277  -76.010482    0.001205   1.000   0.000067   0.000003
        712    16  -76.009293  -76.010415    0.001123   1.000   0.000067   0.000003
        713    17  -76.009311  -76.010348    0.001037   1.000   0.000067   0.000002
        714    16  -76.009331  -76.010284    0.000953   1.000   0.000067   0.000002
        715    17  -76.009613  -76.010247    0.000634   1.000   0.000063   0.000005
        716    17  -76.009794  -76.010243    0.000449   1.000   0.000061   0.000007
        717    17  -76.009699  -76.010316    0.000618   1.000   0.000061   0.000005
        718    16  -76.009552  -76.010309    0.000758   1.000   0.000062   0.000005
        719    16  -76.009427  -76.010299    0.000872   1.000   0.000062   0.000005
        720    16  -76.009358  -76.010295    0.000938   1.000   0.000062   0.000005
        721    16  -76.009343  -76.010302    0.000958   1.000   0.000062   0.000005
        722    17  -76.009362  -76.010320    0.000959   1.000   0.000063   0.000005
        723    16  -76.009384  -76.010348    0.000965   1.000   0.000063   0.000005
        724    17  -76.009391  -76.010380    0.000989   1.000   0.000063   0.000004
        725    17  -76.009378  -76.010408    0.001030   1.000   0.000063   0.000003
        726    16  -76.009351  -76.010428    0.001077   1.000   0.000063   0.000002
        727    16  -76.009319  -76.010437    0.001118   1.000   0.000062   0.000002
        728    17  -76.009293  -76.010435    0.001142   1.000   0.000062   0.000003
        729    16  -76.009232  -76.010480    0.001248   1.000   0.000062   0.000005
        730    17  -76.009141  -76.010562    0.001421   1.000   0.000063   0.000004
        731    17  -76.009148  -76.010550    0.001402   1.000   0.000063   0.000004
        732    16  -76.009206  -76.010532    0.001327   1.000   0.000063   0.000004
        733    16  -76.009272  -76.010521    0.001250   1.000   0.000062   0.000004
        734    17  -76.009325  -76.010520    0.001195   1.000   0.000061   0.000004
        735    16  -76.009363  -76.010524    0.001162   1.000   0.000061   0.000004
        736    17  -76.009387  -76.010528    0.001141   1.000   0.000060   0.000003
        737    17  -76.009401  -76.010529    0.001127   1.000   0.000060   0.000003
        738    16  -76.009404  -76.010523    0.001119   1.000   0.000060   0.000002
        739    16  -76.009394  -76.010512    0.001118   1.000   0.000060   0.000002
        740    17  -76.009371  -76.010495    0.001124   1.000   0.000060   0.000002
        741    16  -76.009337  -76.010472    0.001135   1.000   0.000060   0.000002
        742    17  -76.009295  -76.010444    0.001148   1.000   0.000060   0.000002
        743    17  -76.009253  -76.010412    0.001159   1.000   0.000061   0.000002
        744    16  -76.009213  -76.010376    0.001164   1.000   0.000061   0.000002
        745    16  -76.009178  -76.010339    0.001161   1.000   0.000061   0.000002
        746    17  -76.009151  -76.010302    0.001151   1.000   0.000061   0.000002
        747    17  -76.009131  -76.010266    0.001134   1.000   0.000061   0.000002
        748    16  -76.009119  -76.010232    0.001113   1.000   0.000061   0.000002
        749    16  -76.009114  -76.010201    0.001087   1.000   0.000061   0.000002
        750    17  -76.009116  -76.010174    0.001058   1.000   0.000061   0.000001
        751    17  -76.009125  -76.010151    0.001026   1.000   0.000061   0.000001
        752    16  -76.009140  -76.010133    0.000993   1.000   0.000061   0.000001
        753    16  -76.009160  -76.010118    0.000958   1.000   0.000061   0.000002
        754    17  -76.009185  -76.010108    0.000924   1.000   0.000061   0.000002
        755    17  -76.009212  -76.010103    0.000891   1.000   0.000061   0.000002
        756    16  -76.009241  -76.010102    0.000862   1.000   0.000061   0.000002
        757    16  -76.009269  -76.010106    0.000837   1.000   0.000061   0.000002
        758    17  -76.009295  -76.010115    0.000819   1.000   0.000061   0.000002
        759    17  -76.009318  -76.010127    0.000809   1.000   0.000060   0.000002
        760    16  -76.009337  -76.010143    0.000807   1.000   0.000060   0.000001
        761    16  -76.009350  -76.010163    0.000813   1.000   0.000060   0.000001
        762    17  -76.009358  -76.010185    0.000827   1.000   0.000060   0.000001
        763    17  -76.009360  -76.010210    0.000849   1.000   0.000060   0.000001
        764    16  -76.009357  -76.010235    0.000878   1.000   0.000060   0.000001
        765    17  -76.009349  -76.010261    0.000912   1.000   0.000060   0.000001
        766    16  -76.009338  -76.010287    0.000950   1.000   0.000060   0.000001
        767    17  -76.009323  -76.010312    0.000989   1.000   0.000060   0.000001
        768    17  -76.009306  -76.010335    0.001029   1.000   0.000060   0.000001
        769    16  -76.009288  -76.010356    0.001067   1.000   0.000060   0.000001
        770    16  -76.009270  -76.010373    0.001103   1.000   0.000060   0.000001
        771    17  -76.009252  -76.010386    0.001134   1.000   0.000060   0.000001
        772    17  -76.009236  -76.010396    0.001160   1.000   0.000060   0.000001
        773    16  -76.009221  -76.010401    0.001180   1.000   0.000060   0.000001
        774    16  -76.009209  -76.010402    0.001193   1.000   0.000060   0.000001
        775    17  -76.009199  -76.010399    0.001200   1.000   0.000060   0.000001
        776    17  -76.009191  -76.010391    0.001200   1.000   0.000060   0.000001
        777    16  -76.009186  -76.010380    0.001194   1.000   0.000060   0.000001
[...]
       9842    17  -76.053644  -76.053555    0.000090 257.948   0.000000   0.000004
       9843    17  -76.053644  -76.053552    0.000092 257.948   0.000000   0.000004
       9844    17  -76.053644  -76.053550    0.000094 257.948   0.000000   0.000004
       9845    17  -76.053644  -76.053548    0.000096 257.948   0.000000   0.000004
       9846    17  -76.053644  -76.053546    0.000098 257.948   0.000000   0.000004
       9847    17  -76.053644  -76.053544    0.000100 257.948   0.000000   0.000004
       9848    17  -76.053644  -76.053542    0.000102 257.948   0.000000   0.000004
       9849    16  -76.053644  -76.053541    0.000104 257.948   0.000000   0.000004
       9850    17  -76.053644  -76.053539    0.000105 257.948   0.000000   0.000004
       9851    17  -76.053644  -76.053538    0.000106 257.948   0.000000   0.000004
       9852    17  -76.053644  -76.053538    0.000106 257.948   0.000000   0.000004
       9853    17  -76.053644  -76.053537    0.000107 257.948   0.000000   0.000004
       9854    17  -76.053644  -76.053537    0.000107 257.948   0.000000   0.000004
       9855    17  -76.053644  -76.053537    0.000107 257.948   0.000000   0.000004
       9856    17  -76.053644  -76.053537    0.000107 257.948   0.000000   0.000004
       9857    17  -76.053644  -76.053537    0.000107 257.948   0.000000   0.000004
       9858    17  -76.053644  -76.053537    0.000107 257.948   0.000000   0.000004
       9859    17  -76.053644  -76.053536    0.000108 257.948   0.000000   0.000004
       9860    17  -76.053644  -76.053536    0.000108 257.948   0.000000   0.000004
       9861    17  -76.053644  -76.053535    0.000109 257.948   0.000000   0.000004
       9862    17  -76.053644  -76.053534    0.000110 257.948   0.000000   0.000004
       9863    17  -76.053644  -76.053533    0.000111 257.948   0.000000   0.000004
       9864    17  -76.053644  -76.053532    0.000112 257.948   0.000000   0.000004
       9865    17  -76.053644  -76.053531    0.000113 257.948   0.000000   0.000004
       9866    17  -76.053644  -76.053529    0.000115 257.948   0.000000   0.000004
       9867    17  -76.053644  -76.053528    0.000116 257.948   0.000000   0.000004
       9868    17  -76.053644  -76.053526    0.000117 257.948   0.000000   0.000004
       9869    17  -76.053644  -76.053525    0.000119 257.948   0.000000   0.000004
       9870    17  -76.053644  -76.053524    0.000120 257.948   0.000000   0.000004
       9871    17  -76.053644  -76.053523    0.000120 257.948   0.000000   0.000004
       9872    17  -76.053644  -76.053523    0.000121 257.948   0.000000   0.000004
       9873    17  -76.053644  -76.053523    0.000121 257.948   0.000000   0.000004
       9874    17  -76.053644  -76.053523    0.000121 257.948   0.000000   0.000004
       9875    17  -76.053644  -76.053523    0.000121 257.948   0.000000   0.000004
       9876    17  -76.053644  -76.053524    0.000120 257.948   0.000000   0.000004
       9877    17  -76.053644  -76.053524    0.000119 257.948   0.000000   0.000004
       9878    17  -76.053644  -76.053525    0.000118 257.948   0.000000   0.000004
       9879    17  -76.053644  -76.053527    0.000117 257.948   0.000000   0.000004
       9880    17  -76.053644  -76.053528    0.000116 257.948   0.000000   0.000004
       9881    17  -76.053644  -76.053529    0.000114 257.948   0.000000   0.000004
       9882    17  -76.053644  -76.053531    0.000113 257.948   0.000000   0.000004
       9883    17  -76.053644  -76.053532    0.000111 257.948   0.000000   0.000004
       9884    17  -76.053644  -76.053534    0.000110 257.948   0.000000   0.000004
       9885    17  -76.053644  -76.053536    0.000108 257.948   0.000000   0.000004
       9886    17  -76.053644  -76.053537    0.000106 257.948   0.000000   0.000004
       9887    17  -76.053644  -76.053539    0.000104 257.948   0.000000   0.000004
       9888    17  -76.053644  -76.053541    0.000103 257.948   0.000000   0.000004
       9889    17  -76.053644  -76.053543    0.000101 257.948   0.000000   0.000004
       9890    17  -76.053644  -76.053544    0.000099 257.948   0.000000   0.000004
       9891    17  -76.053644  -76.053546    0.000097 257.948   0.000000   0.000004
       9892    17  -76.053644  -76.053548    0.000096 257.948   0.000000   0.000004
       9893    17  -76.053643  -76.053550    0.000094 257.948   0.000000   0.000004
       9894    17  -76.053643  -76.053552    0.000092 257.948   0.000000   0.000004
       9895    17  -76.053643  -76.053553    0.000090 257.948   0.000000   0.000004
       9896    17  -76.053643  -76.053555    0.000088 257.948   0.000000   0.000004
       9897    17  -76.053643  -76.053557    0.000087 257.948   0.000000   0.000004
       9898    17  -76.053643  -76.053558    0.000085 257.948   0.000000   0.000004
       9899    17  -76.053643  -76.053560    0.000084 257.948   0.000000   0.000004
       9900    17  -76.053643  -76.053561    0.000082 257.948   0.000000   0.000004
       9901    17  -76.053643  -76.053562    0.000081 257.948   0.000000   0.000004
       9902    17  -76.053643  -76.053563    0.000080 257.948   0.000000   0.000004
       9903    17  -76.053643  -76.053563    0.000080 257.948   0.000000   0.000004
       9904    17  -76.053643  -76.053564    0.000079 257.948   0.000000   0.000004
       9905    17  -76.053643  -76.053564    0.000079 257.948   0.000000   0.000004
       9906    17  -76.053643  -76.053563    0.000080 257.948   0.000000   0.000004
       9907    17  -76.053643  -76.053563    0.000080 257.948   0.000000   0.000004
       9908    17  -76.053643  -76.053562    0.000081 257.948   0.000000   0.000004
       9909    17  -76.053643  -76.053561    0.000082 257.948   0.000000   0.000004
       9910    17  -76.053643  -76.053560    0.000083 257.948   0.000000   0.000004
       9911    17  -76.053643  -76.053558    0.000085 257.948   0.000000   0.000004
       9912    17  -76.053643  -76.053556    0.000087 257.948   0.000000   0.000004
       9913    17  -76.053643  -76.053554    0.000089 257.948   0.000000   0.000004
       9914    17  -76.053643  -76.053552    0.000091 257.948   0.000000   0.000004
       9915    17  -76.053643  -76.053549    0.000094 257.948   0.000000   0.000004
       9916    17  -76.053643  -76.053547    0.000096 257.948   0.000000   0.000004
       9917    17  -76.053643  -76.053544    0.000099 257.948   0.000000   0.000004
       9918    17  -76.053643  -76.053541    0.000101 257.948   0.000000   0.000004
       9919    17  -76.053643  -76.053539    0.000104 257.948   0.000000   0.000004
       9920    17  -76.053643  -76.053536    0.000107 257.948   0.000000   0.000004
       9921    17  -76.053643  -76.053534    0.000109 257.948   0.000000   0.000004
       9922    17  -76.053643  -76.053531    0.000111 257.948   0.000000   0.000004
       9923    17  -76.053643  -76.053529    0.000114 257.948   0.000000   0.000004
       9924    17  -76.053643  -76.053526    0.000117 257.948   0.000000   0.000004
       9925    17  -76.053643  -76.053524    0.000119 257.948   0.000000   0.000004
       9926    17  -76.053643  -76.053521    0.000122 257.948   0.000000   0.000004
       9927    17  -76.053643  -76.053519    0.000124 257.948   0.000000   0.000004
       9928    17  -76.053643  -76.053517    0.000126 257.948   0.000000   0.000004
       9929    17  -76.053643  -76.053515    0.000128 257.948   0.000000   0.000004
       9930    17  -76.053643  -76.053513    0.000130 257.948   0.000000   0.000004
       9931    17  -76.053643  -76.053511    0.000132 257.948   0.000000   0.000004
       9932    17  -76.053643  -76.053509    0.000133 257.948   0.000000   0.000004
       9933    17  -76.053643  -76.053508    0.000135 257.948   0.000000   0.000004
       9934    17  -76.053643  -76.053507    0.000136 257.948   0.000000   0.000004
       9935    17  -76.053643  -76.053506    0.000137 257.948   0.000000   0.000004
       9936    17  -76.053643  -76.053505    0.000138 257.948   0.000000   0.000004
       9937    17  -76.053643  -76.053504    0.000138 257.948   0.000000   0.000004
       9938    17  -76.053643  -76.053504    0.000138 257.948   0.000000   0.000004
       9939    17  -76.053643  -76.053505    0.000138 257.948   0.000000   0.000004
       9940    17  -76.053643  -76.053505    0.000138 257.948   0.000000   0.000004
       9941    17  -76.053643  -76.053506    0.000137 257.948   0.000000   0.000004
       9942    17  -76.053643  -76.053507    0.000136 257.948   0.000000   0.000004
       9943    17  -76.053643  -76.053508    0.000135 257.948   0.000000   0.000004
       9944    17  -76.053643  -76.053509    0.000133 257.948   0.000000   0.000004
       9945    17  -76.053643  -76.053511    0.000132 257.948   0.000000   0.000004
       9946    17  -76.053643  -76.053512    0.000130 257.948   0.000000   0.000004
       9947    17  -76.053643  -76.053514    0.000129 257.948   0.000000   0.000004
       9948    17  -76.053643  -76.053516    0.000127 257.948   0.000000   0.000004
       9949    17  -76.053643  -76.053517    0.000125 257.948   0.000000   0.000004
       9950    17  -76.053642  -76.053519    0.000124 257.948   0.000000   0.000004
       9951    17  -76.053642  -76.053520    0.000122 257.948   0.000000   0.000004
       9952    17  -76.053642  -76.053522    0.000121 257.948   0.000000   0.000004
       9953    17  -76.053642  -76.053523    0.000119 257.948   0.000000   0.000004
       9954    17  -76.053642  -76.053525    0.000117 257.948   0.000000   0.000004
       9955    17  -76.053642  -76.053527    0.000116 257.948   0.000000   0.000004
       9956    17  -76.053642  -76.053528    0.000114 257.948   0.000000   0.000004
       9957    17  -76.053642  -76.053530    0.000113 257.948   0.000000   0.000004
       9958    17  -76.053642  -76.053531    0.000111 257.948   0.000000   0.000004
       9959    17  -76.053642  -76.053532    0.000110 257.948   0.000000   0.000004
       9960    17  -76.053642  -76.053534    0.000108 257.948   0.000000   0.000004
       9961    17  -76.053642  -76.053535    0.000107 257.948   0.000000   0.000004
       9962    17  -76.053642  -76.053536    0.000106 257.948   0.000000   0.000004
       9963    17  -76.053642  -76.053537    0.000105 257.948   0.000000   0.000004
       9964    17  -76.053642  -76.053538    0.000104 257.948   0.000000   0.000004
       9965    17  -76.053642  -76.053539    0.000103 257.948   0.000000   0.000004
       9966    17  -76.053642  -76.053540    0.000103 257.948   0.000000   0.000004
       9967    17  -76.053642  -76.053540    0.000102 257.948   0.000000   0.000004
       9968    17  -76.053642  -76.053540    0.000102 257.948   0.000000   0.000004
       9969    17  -76.053642  -76.053540    0.000102 257.948   0.000000   0.000004
       9970    17  -76.053642  -76.053540    0.000102 257.948   0.000000   0.000004
       9971    17  -76.053642  -76.053540    0.000102 257.948   0.000000   0.000004
       9972    17  -76.053642  -76.053540    0.000102 257.948   0.000000   0.000004
       9973    17  -76.053642  -76.053539    0.000103 257.948   0.000000   0.000004
       9974    17  -76.053642  -76.053539    0.000103 257.948   0.000000   0.000004
       9975    17  -76.053642  -76.053538    0.000104 257.948   0.000000   0.000004
       9976    17  -76.053642  -76.053537    0.000105 257.948   0.000000   0.000004
       9977    17  -76.053642  -76.053537    0.000105 257.948   0.000000   0.000004
       9978    17  -76.053642  -76.053536    0.000106 257.948   0.000000   0.000004
       9979    17  -76.053642  -76.053535    0.000107 257.948   0.000000   0.000004
       9980    17  -76.053642  -76.053534    0.000108 257.948   0.000000   0.000004
       9981    17  -76.053642  -76.053533    0.000109 257.948   0.000000   0.000004
       9982    17  -76.053642  -76.053531    0.000110 257.948   0.000000   0.000004
       9983    17  -76.053642  -76.053530    0.000112 257.948   0.000000   0.000004
       9984    17  -76.053642  -76.053529    0.000113 257.948   0.000000   0.000004
       9985    17  -76.053642  -76.053528    0.000114 257.948   0.000000   0.000004
       9986    17  -76.053642  -76.053527    0.000115 257.948   0.000000   0.000004
       9987    17  -76.053642  -76.053525    0.000116 257.948   0.000000   0.000004
       9988    17  -76.053642  -76.053524    0.000117 257.948   0.000000   0.000004
       9989    17  -76.053642  -76.053523    0.000119 257.948   0.000000   0.000004
       9990    17  -76.053642  -76.053522    0.000120 257.948   0.000000   0.000004
       9991    17  -76.053642  -76.053521    0.000121 257.948   0.000000   0.000004
       9992    17  -76.053642  -76.053520    0.000122 257.948   0.000000   0.000004
       9993    17  -76.053642  -76.053519    0.000123 257.948   0.000000   0.000004
       9994    17  -76.053642  -76.053518    0.000124 257.948   0.000000   0.000004
       9995    17  -76.053642  -76.053517    0.000125 257.948   0.000000   0.000004
       9996    17  -76.053642  -76.053516    0.000126 257.948   0.000000   0.000004
       9997    17  -76.053642  -76.053515    0.000127 257.948   0.000000   0.000004
       9998    17  -76.053642  -76.053514    0.000127 257.948   0.000000   0.000004
       9999    17  -76.053642  -76.053514    0.000128 257.948   0.000000   0.000004

        ==> Orbital Optimization <==

            Orbital Optimization did not converge in  20 iterations 
            Total energy change: -4.580997e-09
            Final gradient norm: 1.829845e-06

      10000    17  -76.053642  -76.053513    0.000128  16.939   0.000000   0.000004
      10001    17  -76.053602  -76.053504    0.000098  16.939   0.000001   0.000015
      10002    16  -76.053613  -76.053248    0.000365  16.939   0.000001   0.000008
      10003    16  -76.053638  -76.053186    0.000452  16.939   0.000001   0.000008
      10004    17  -76.053656  -76.053238    0.000418  16.939   0.000001   0.000008
      10005    17  -76.053660  -76.053343    0.000317  16.939   0.000001   0.000007
      10006    16  -76.053657  -76.053422    0.000234  16.939   0.000001   0.000005
      10007    16  -76.053652  -76.053470    0.000182  16.939   0.000001   0.000004
      10008    16  -76.053650  -76.053501    0.000149  16.939   0.000001   0.000003
      10009    17  -76.053649  -76.053531    0.000118  16.939   0.000001   0.000003
      10010    17  -76.053649  -76.053558    0.000091  16.939   0.000001   0.000003
      10011    15  -76.053648  -76.053581    0.000067  16.939   0.000001   0.000004
      10012    16  -76.053648  -76.053602    0.000046  16.939   0.000001   0.000004
      10013    17  -76.053648  -76.053619    0.000029  16.939   0.000000   0.000004
      10014    16  -76.053648  -76.053635    0.000014  16.939   0.000000   0.000004
      10015    17  -76.053648  -76.053649    0.000000  16.939   0.000000   0.000005
      10016    17  -76.053648  -76.053660    0.000012  16.939   0.000000   0.000005
      10017    16  -76.053646  -76.053666    0.000020  16.939   0.000000   0.000005
      10018    16  -76.053644  -76.053663    0.000019  16.939   0.000000   0.000004
      10019    17  -76.053641  -76.053649    0.000009  16.939   0.000000   0.000004
      10020    16  -76.053638  -76.053633    0.000004  16.939   0.000000   0.000004
      10021    17  -76.053636  -76.053616    0.000020  16.939   0.000000   0.000004
      10022    17  -76.053634  -76.053589    0.000044  16.939   0.000000   0.000003
      10023    16  -76.053633  -76.053560    0.000073  16.939   0.000000   0.000003
      10024    16  -76.053633  -76.053538    0.000096  16.939   0.000000   0.000003
      10025    16  -76.053635  -76.053533    0.000103  16.939   0.000000   0.000002
      10026    17  -76.053636  -76.053524    0.000112  16.939   0.000000   0.000002
      10027    17  -76.053637  -76.053521    0.000116  16.939   0.000000   0.000002
      10028    16  -76.053638  -76.053521    0.000117  16.939   0.000000   0.000002
      10029    16  -76.053639  -76.053523    0.000116  16.939   0.000000   0.000002
      10030    17  -76.053640  -76.053528    0.000112  16.939   0.000000   0.000002
      10031    17  -76.053641  -76.053537    0.000105  16.939   0.000000   0.000002
      10032    16  -76.053643  -76.053550    0.000093  16.939   0.000000   0.000002
      10033    15  -76.053644  -76.053565    0.000079  16.939   0.000000   0.000002
      10034    17  -76.053644  -76.053581    0.000063  16.939   0.000000   0.000002
      10035    17  -76.053645  -76.053595    0.000050  16.939   0.000000   0.000002
      10036    16  -76.053645  -76.053606    0.000039  16.939   0.000000   0.000002
      10037    16  -76.053645  -76.053612    0.000033  16.939   0.000000   0.000002
      10038    17  -76.053644  -76.053612    0.000032  16.939   0.000000   0.000002
      10039    17  -76.053644  -76.053608    0.000035  16.939   0.000000   0.000002
      10040    16  -76.053643  -76.053603    0.000040  16.939   0.000000   0.000002
      10041    16  -76.053642  -76.053589    0.000053  16.939   0.000000   0.000001
      10042    17  -76.053641  -76.053567    0.000074  16.939   0.000000   0.000001
      10043    17  -76.053641  -76.053543    0.000098  16.939   0.000000   0.000001
      10044    16  -76.053641  -76.053523    0.000117  16.939   0.000000   0.000001
      10045    16  -76.053640  -76.053502    0.000138  16.939   0.000000   0.000001
      10046    17  -76.053641  -76.053484    0.000157  16.939   0.000000   0.000001
      10047    16  -76.053641  -76.053471    0.000171  16.939   0.000000   0.000001
      10048    17  -76.053642  -76.053463    0.000179  16.939   0.000000   0.000001
      10049    17  -76.053642  -76.053461    0.000181  16.939   0.000000   0.000001
      10050    16  -76.053643  -76.053465    0.000178  16.939   0.000000   0.000001
      10051    16  -76.053644  -76.053474    0.000169  16.939   0.000000   0.000001
      10052    16  -76.053644  -76.053487    0.000157  16.939   0.000000   0.000001
      10053    17  -76.053645  -76.053504    0.000141  16.939   0.000000   0.000001
      10054    17  -76.053645  -76.053522    0.000124  16.939   0.000000   0.000001
      10055    16  -76.053645  -76.053540    0.000105  16.939   0.000000   0.000001
      10056    16  -76.053645  -76.053557    0.000088  16.939   0.000000   0.000001
      10057    16  -76.053645  -76.053573    0.000072  16.939   0.000000   0.000001
      10058    17  -76.053645  -76.053586    0.000059  16.939   0.000000   0.000001
      10059    17  -76.053644  -76.053595    0.000049  16.939   0.000000   0.000001
      10060    16  -76.053644  -76.053602    0.000042  16.939   0.000000   0.000001
      10061    15  -76.053644  -76.053606    0.000038  16.939   0.000000   0.000001

        ==> Orbital Optimization <==

            Orbital Optimization converged in  16 iterations 
            Total energy change: -2.829523e-10
            Final gradient norm: 8.580053e-07


      v2RDM-DOCI iterations converged!

    * v2RDM-DOCI total energy:            -76.053643645830


 # Natural Orbital Occupation Numbers (spin free) #
 Irrep: 1
      1:  1.9999912
      2:  1.9925328
      3:  1.9756735
      4:  1.9756724
      5:  1.9925342
      6:  0.0238018
      7:  0.0238001
      8:  0.0011665
      9:  0.0011666
     10:  0.0066823
     11:  0.0066841
     12:  0.0001471
     13:  0.0001474


  ==> Iteration count <==

      Microiterations:                  166053
      Macroiterations:                   10062
      Orbital optimization steps:           14

  ==> Wall time <==

      Microiterations:                    4.71 s
      Macroiterations:                   27.11 s
      Orbital optimization:               1.51 s
      Total:                             34.09 s

    SCF total energy..................................................PASSED
    v2RDM-DOCI total energy...........................................PASSED

    Psi4 stopped on: Saturday, 11 July 2020 09:06PM
    Psi4 wall time for execution: 0:00:34.48

*** Psi4 exiting successfully. Buy a developer a beer!
