
    -----------------------------------------------------------------------
          Psi4: An Open-Source Ab Initio Electronic Structure Package
                               Psi4 1.4a2.dev397 

                         Git: Rev {master} b3df9b2 dirty


    R. M. Parrish, L. A. Burns, D. G. A. Smith, A. C. Simmonett,
    A. E. DePrince III, E. G. Hohenstein, U. Bozkaya, A. Yu. Sokolov,
    R. Di Remigio, R. M. Richard, J. F. Gonthier, A. M. James,
    H. R. McAlexander, A. Kumar, M. Saitow, X. Wang, B. P. Pritchard,
    P. Verma, H. F. Schaefer III, K. Patkowski, R. A. King, E. F. Valeev,
    F. A. Evangelista, J. M. Turney, T. D. Crawford, and C. D. Sherrill,
    J. Chem. Theory Comput. 13(7) pp 3185--3197 (2017).
    (doi: 10.1021/acs.jctc.7b00174)


                         Additional Contributions by
    P. Kraus, H. Kruse, M. H. Lechner, M. C. Schieber, R. A. Shaw,
    A. Alenaizan, R. Galvelis, Z. L. Glick, S. Lehtola, and J. P. Misiewicz

    -----------------------------------------------------------------------


    Psi4 started on: Friday, 10 July 2020 09:10PM

    Process ID: 84468
    Host:       Eugenes-MacBook-Air.local
    PSIDATADIR: /Users/deprince/edeprince3/psi4/install/master/share/psi4
    Memory:     500.0 MiB
    Threads:    1
    
  ==> Input File <==

--------------------------------------------------------------------------

# job description:
print('        H2O / 6-31g / DOCI, scf_type = DF, rOH = 1.0 A, aHOH = 104.5')

sys.path.insert(0, '../../..')
import hilbert

molecule h2o {
0 1
O
H 1 1.0
H 1 1.0 2 104.5
symmetry c1
}

set {
  reference rhf
  basis 6-31g
  scf_type df

  e_convergence 1e-4
  r_convergence 1e-6
  orbopt_gradient_convergence 1e-6
  orbopt_energy_convergence 1e-8

  localize_orbitals true
  noisy_orbitals    true
  optimize_orbitals true
  orbopt_maxiter 20
  orbopt_frequency 1000
  maxiter 100000

  positivity dqg

}

en = energy('v2rdm-doci')

ref_scf        = -75.98014193580194 # TEST
ref_v2rdm_doci = -76.053681341564   # TEST

compare_values(ref_scf, variable("SCF TOTAL ENERGY"), 8, "SCF total energy") # TEST
compare_values(ref_v2rdm_doci, variable("CURRENT ENERGY"), 5, "v2RDM-DOCI total energy") # TEST
--------------------------------------------------------------------------

Scratch directory: /tmp/

*** tstart() called on Eugenes-MacBook-Air.local
*** at Fri Jul 10 21:10:49 2020

   => Loading Basis Set <=

    Name: 6-31G
    Role: ORBITAL
    Keyword: BASIS
    atoms 1   entry O          line   117 file /Users/deprince/edeprince3/psi4/install/master/share/psi4/basis/6-31g.gbs 
    atoms 2-3 entry H          line    26 file /Users/deprince/edeprince3/psi4/install/master/share/psi4/basis/6-31g.gbs 


         ---------------------------------------------------------
                                   SCF
               by Justin Turney, Rob Parrish, Andy Simmonett
                          and Daniel G. A. Smith
                              RHF Reference
                        1 Threads,    500 MiB Core
         ---------------------------------------------------------

  ==> Geometry <==

    Molecular point group: c1
    Full point group: C2v

    Geometry (in Angstrom), charge = 0, multiplicity = 1:

       Center              X                  Y                   Z               Mass       
    ------------   -----------------  -----------------  -----------------  -----------------
         O            0.000000000000     0.000000000000    -0.068516219320    15.994914619570
         H            0.000000000000    -0.790689573744     0.543701060715     1.007825032230
         H            0.000000000000     0.790689573744     0.543701060715     1.007825032230

  Running in c1 symmetry.

  Rotational constants: A =     25.12555  B =     13.37733  C =      8.72955 [cm^-1]
  Rotational constants: A = 753245.07149  B = 401042.16706  C = 261705.25473 [MHz]
  Nuclear repulsion =    8.801465564567374

  Charge       = 0
  Multiplicity = 1
  Electrons    = 10
  Nalpha       = 5
  Nbeta        = 5

  ==> Algorithm <==

  SCF Algorithm Type is DF.
  DIIS enabled.
  MOM disabled.
  Fractional occupation disabled.
  Guess Type is SAD.
  Energy threshold   = 1.00e-04
  Density threshold  = 1.00e-08
  Integral threshold = 0.00e+00

  ==> Primary Basis <==

  Basis Set: 6-31G
    Blend: 6-31G
    Number of shells: 9
    Number of basis function: 13
    Number of Cartesian functions: 13
    Spherical Harmonics?: false
    Max angular momentum: 1

   => Loading Basis Set <=

    Name: (6-31G AUX)
    Role: JKFIT
    Keyword: DF_BASIS_SCF
    atoms 1   entry O          line   221 file /Users/deprince/edeprince3/psi4/install/master/share/psi4/basis/cc-pvdz-jkfit.gbs 
    atoms 2-3 entry H          line    51 file /Users/deprince/edeprince3/psi4/install/master/share/psi4/basis/cc-pvdz-jkfit.gbs 

  ==> Pre-Iterations <==

   -------------------------------------------------------
    Irrep   Nso     Nmo     Nalpha   Nbeta   Ndocc  Nsocc
   -------------------------------------------------------
     A         13      13       0       0       0       0
   -------------------------------------------------------
    Total      13      13       5       5       5       0
   -------------------------------------------------------

  ==> Integral Setup <==

  ==> DiskDFJK: Density-Fitted J/K Matrices <==

    J tasked:                  Yes
    K tasked:                  Yes
    wK tasked:                  No
    OpenMP threads:              1
    Integrals threads:           1
    Memory [MiB]:              375
    Algorithm:                Core
    Integral Cache:           SAVE
    Schwarz Cutoff:          1E-12
    Fitting Condition:       1E-10

   => Auxiliary Basis Set <=

  Basis Set: (6-31G AUX)
    Blend: CC-PVDZ-JKFIT
    Number of shells: 42
    Number of basis function: 131
    Number of Cartesian functions: 131
    Spherical Harmonics?: false
    Max angular momentum: 3

  Minimum eigenvalue in the overlap matrix is 7.3923788795E-02.
  Reciprocal condition number of the overlap matrix is 2.1980826342E-02.
    Using symmetric orthogonalization.
  SCF Guess: Superposition of Atomic Densities via on-the-fly atomic UHF.

  ==> Iterations <==

                           Total Energy        Delta E     RMS |[F,P]|

   @DF-RHF iter SAD:   -75.45941871343828   -7.54594e+01   0.00000e+00 
   @DF-RHF iter   1:   -75.90434666105367   -4.44928e-01   3.09953e-02 DIIS
   @DF-RHF iter   2:   -75.95857164768282   -5.42250e-02   1.90214e-02 DIIS
   @DF-RHF iter   3:   -75.97973621451969   -2.11646e-02   1.56674e-03 DIIS
   @DF-RHF iter   4:   -75.98012651826689   -3.90304e-04   3.11867e-04 DIIS
   @DF-RHF iter   5:   -75.98014154101817   -1.50228e-05   4.14320e-05 DIIS
   @DF-RHF iter   6:   -75.98014191790431   -3.76886e-07   8.27072e-06 DIIS
   @DF-RHF iter   7:   -75.98014193491713   -1.70128e-08   1.79874e-06 DIIS
   @DF-RHF iter   8:   -75.98014193578133   -8.64205e-10   3.33255e-07 DIIS
   @DF-RHF iter   9:   -75.98014193580164   -2.03073e-11   3.10076e-08 DIIS
   @DF-RHF iter  10:   -75.98014193580194   -2.98428e-13   2.58167e-09 DIIS
  Energy and wave function converged.


  ==> Post-Iterations <==

    Orbital Energies [Eh]
    ---------------------

    Doubly Occupied:                                                      

       1A    -20.568888     2A     -1.334712     3A     -0.686875  
       4A     -0.554298     5A     -0.499284  

    Virtual:                                                              

       6A      0.193417     7A      0.287599     8A      1.041506  
       9A      1.130380    10A      1.164432    11A      1.220999  
      12A      1.368964    13A      1.693510  

    Final Occupation by Irrep:
              A 
    DOCC [     5 ]

  @DF-RHF Final Energy:   -75.98014193580194

   => Energetics <=

    Nuclear Repulsion Energy =              8.8014655645673745
    One-Electron Energy =                -122.2751012239349109
    Two-Electron Energy =                  37.4934937235655994
    Total Energy =                        -75.9801419358019245

Computation Completed


Properties will be evaluated at   0.000000,   0.000000,   0.000000 [a0]

Properties computed using the SCF density matrix

  Nuclear Dipole Moment: [e a0]
     X:     0.0000      Y:     0.0000      Z:     1.0191

  Electronic Dipole Moment: [e a0]
     X:    -0.0000      Y:     0.0000      Z:     0.0213

  Dipole Moment: [e a0]
     X:    -0.0000      Y:     0.0000      Z:     1.0404     Total:     1.0404

  Dipole Moment: [D]
     X:    -0.0000      Y:     0.0000      Z:     2.6444     Total:     2.6444


*** tstop() called on Eugenes-MacBook-Air.local at Fri Jul 10 21:10:49 2020
Module time:
	user time   =       0.35 seconds =       0.01 minutes
	system time =       0.02 seconds =       0.00 minutes
	total time  =          0 seconds =       0.00 minutes
Total time:
	user time   =       0.35 seconds =       0.01 minutes
	system time =       0.02 seconds =       0.00 minutes
	total time  =          0 seconds =       0.00 minutes

Reading options from the HILBERT block
Calling plugin hilbert.so.


  ==> Pipek-Mezey Localizer <==

    Convergence =   1.000E-08
    Maxiter     =          50

    Iteration                   Metric       Residual
    @PM    0   4.0403577598919860E+00              -
    @PM    1   4.2293811168321778E+00   4.678382E-02
    @PM    2   4.2298843280346654E+00   1.189799E-04
    @PM    3   4.2298866055815463E+00   5.384419E-07
    @PM    4   4.2298866262938315E+00   4.896653E-09

    PM Localizer converged.



        ***************************************************
        *                                                 *
        *    v2RDM-DOCI                                   *
        *                                                 *
        *    A variational 2-RDM-driven approach to       *
        *    doubly occupied configuration interaction    *
        *                                                 *
        ***************************************************

  ==> Convergence parameters <==

        r_convergence:                      1.000e-06
        e_convergence:                      1.000e-04
        cg_convergence:                     1.000e-09
        maxiter:                               100000
        cg_maxiter:                             10000

  ==> Active space details <==

        Number of frozen core orbitals:             0
        Number of restricted occupied orbitals:     0
        Number of active occupied orbitals:         5
        Number of active virtual orbitals:          8
        Number of restricted virtual orbitals:      0
        Number of frozen virtual orbitals:          0

        Irrep:              A 
 
        frozen_docc     [   0 ]
        restricted_docc [   0 ]
        active          [  13 ]
        restricted_uocc [   0 ]
        frozen_uocc     [   0 ]

  ==> Orbital optimization parameters <==

        1-step algorithm:                    true
        g_convergence:                  1.000e-06
        e_convergence:                  1.000e-08
        maximum iterations:                    20
        frequency:                           1000
        active-active rotations:             true
        exact diagonal Hessian:              true
        number of DIIS vectors:                 0
        print iteration info:               false

  ==> Memory requirements <==

        D2:                          0.00 mb
        Q2:                          0.00 mb
        G2:                          0.01 mb

        Total number of variables:           1079
        Total number of constraints:          939
        Total memory requirements:        2.77 mb

    ==> Transform three-electron integrals <==


        Time for integral transformation:     0.01 s

    Molecular point group: c1
    Full point group: C2v

    Geometry (in Angstrom), charge = 0, multiplicity = 1:

       Center              X                  Y                   Z               Mass       
    ------------   -----------------  -----------------  -----------------  -----------------
         O            0.000000000000     0.000000000000    -0.068516219320    15.994914619570
         H            0.000000000000    -0.790689573744     0.543701060715     1.007825032230
         H            0.000000000000     0.790689573744     0.543701060715     1.007825032230

  -AO BASIS SET INFORMATION:
    Name                   = 6-31G
    Blend                  = 6-31G
    Total number of shells = 9
    Number of primitives   = 22
    Number of AO           = 13
    Number of SO           = 13
    Maximum AM             = 1
    Spherical Harmonics    = FALSE

  -Contraction Scheme:
    Atom   Type   All Primitives // Shells:
   ------ ------ --------------------------
       1     O     10s 4p // 3s 2p 
       2     H     4s // 2s 
       3     H     4s // 2s 

  ==> AO Basis Functions <==

    [ 6-31G ]
    cartesian
    ****
    O   1
    S   6 1.00
                      5484.67170000           0.00183110
                       825.23495000           0.01395010
                       188.04696000           0.06844510
                        52.96450000           0.23271430
                        16.89757000           0.47019300
                         5.79963530           0.35852090
    S   3 1.00
                        15.53961600          -0.11077750
                         3.59993360          -0.14802630
                         1.01376180           1.13076700
    P   3 1.00
                        15.53961600           0.07087430
                         3.59993360           0.33975280
                         1.01376180           0.72715860
    S   1 1.00
                         0.27000580           1.00000000
    P   1 1.00
                         0.27000580           1.00000000
    ****
    H   2
    S   3 1.00
                        18.73113700           0.03349460
                         2.82539370           0.23472695
                         0.64012170           0.81375733
    S   1 1.00
                         0.16127780           1.00000000
    ****
    H   3
    S   3 1.00
                        18.73113700           0.03349460
                         2.82539370           0.23472695
                         0.64012170           0.81375733
    S   1 1.00
                         0.16127780           1.00000000
    ****


    reference energy:         -75.980141935802
    frozen core energy:         0.000000000000
    initial 2-RDM energy:     370.325251115171

      oiter iiter        E(p)        E(d)      E gap)      mu     eps(p)     eps(d)
          0    17 -498.853436  259.806134  758.659571   1.000   5.412037   1.940804
          1    16 -230.679459 -204.612970   26.066489   1.000   0.668909   0.919700
          2    17 -182.687281  -97.308254   85.379028   1.000   0.371188   0.160044
          3    16 -108.827114 -101.071679    7.755435   1.000   0.181958   0.170112
          4    14  -51.302783  -91.500642   40.197860   1.000   0.338164   0.128525
          5    16  -34.449753  -77.076862   42.627110   1.000   0.282476   0.072459
          6    15  -40.598664  -67.500525   26.901861   1.000   0.139450   0.047833
          7    15  -53.805918  -64.874302   11.068385   1.000   0.053562   0.043750
          8    15  -69.547894  -65.659829    3.888065   1.000   0.027830   0.040232
          9    16  -78.950321  -67.587802   11.362520   1.000   0.041875   0.032242
         10    14  -82.528298  -69.794441   12.733857   1.000   0.045411   0.024782
         11    14  -81.862769  -71.588712   10.274057   1.000   0.038344   0.021202
         12    14  -80.387695  -72.795116    7.592579   1.000   0.038559   0.018499
         13    14  -79.819302  -73.768503    6.050799   1.000   0.046753   0.014768
         14    16  -79.081993  -74.700398    4.381594   1.000   0.049698   0.011723
         15    16  -78.025305  -75.412649    2.612656   1.000   0.043312   0.010562
         16    16  -76.895415  -75.727776    1.167639   1.000   0.030810   0.010285
         17    16  -75.865807  -75.731517    0.134289   1.000   0.016593   0.009858
         18    15  -75.121474  -75.528334    0.406860   1.000   0.008496   0.009060
         19    14  -74.717675  -75.331153    0.613478   1.000   0.011324   0.007960
         20    16  -74.563607  -75.278096    0.714489   1.000   0.015785   0.006738
         21    16  -74.670711  -75.201007    0.530295   1.000   0.016756   0.006126
         22    14  -74.863899  -75.129550    0.265651   1.000   0.015825   0.005449
         23    16  -75.081519  -75.132804    0.051285   1.000   0.014032   0.004694
         24    16  -75.306087  -75.210587    0.095500   1.000   0.011672   0.004279
         25    16  -75.514426  -75.332663    0.181764   1.000   0.008924   0.004399
         26    16  -75.662894  -75.460722    0.202173   1.000   0.006524   0.004647
         27    14  -75.751582  -75.560020    0.191563   1.000   0.004596   0.004769
         28    15  -75.799924  -75.598634    0.201290   1.000   0.003155   0.004776
         29    15  -75.836663  -75.581810    0.254853   1.000   0.002486   0.004675
         30    14  -75.888429  -75.529551    0.358878   1.000   0.002850   0.004497
         31    15  -75.961700  -75.469096    0.492603   1.000   0.003823   0.004293
         32    14  -76.035302  -75.418549    0.616753   1.000   0.004701   0.004100
         33    16  -76.092412  -75.385718    0.706694   1.000   0.005178   0.003970
         34    14  -76.117146  -75.366813    0.750332   1.000   0.005110   0.003935
         35    16  -76.104989  -75.354349    0.750640   1.000   0.004484   0.003979
         36    14  -76.062968  -75.353272    0.709696   1.000   0.003456   0.004036
         37    15  -76.004028  -75.359960    0.644068   1.000   0.002426   0.004054
         38    15  -75.942939  -75.365123    0.577816   1.000   0.002106   0.004016
         39    14  -76.052564  -75.369371    0.683193   1.000   0.002103   0.003747
         40    13  -76.171550  -75.420736    0.750813   1.000   0.002517   0.003466
         41    16  -76.206558  -75.502123    0.704435   1.000   0.002348   0.003437
         42    13  -76.180575  -75.572872    0.607703   1.000   0.001884   0.003456
         43    13  -76.118329  -75.618109    0.500220   1.000   0.001558   0.003406
         44    15  -76.124666  -75.642085    0.482581   1.000   0.001914   0.003018
         45    15  -76.345190  -75.698219    0.646971   1.000   0.004078   0.001967
         46    17  -76.428456  -75.892197    0.536258   1.000   0.004597   0.000597
         47    17  -76.410602  -76.086104    0.324499   1.000   0.003853   0.000989
         48    14  -76.303678  -76.221551    0.082127   1.000   0.002550   0.001201
         49    15  -76.143353  -76.276363    0.133011   1.000   0.001620   0.001036
         50    14  -75.980283  -76.257959    0.277676   1.000   0.001964   0.000768
         51    14  -75.854942  -76.190619    0.335678   1.000   0.002683   0.000548
         52    14  -75.787400  -76.106694    0.319294   1.000   0.003075   0.000446
         53    14  -75.776277  -76.033109    0.256832   1.000   0.003079   0.000402
         54    17  -75.807133  -75.983869    0.176736   1.000   0.002800   0.000385
         55    17  -75.863817  -75.963563    0.099746   1.000   0.002314   0.000351
         56    17  -75.917152  -75.965277    0.048125   1.000   0.001942   0.000284
         57    16  -75.957931  -75.978310    0.020380   1.000   0.001675   0.000242
         58    16  -75.981790  -75.994615    0.012825   1.000   0.001513   0.000231
         59    16  -75.990915  -76.009040    0.018126   1.000   0.001428   0.000223
         60    16  -75.990590  -76.018619    0.028028   1.000   0.001388   0.000209
         61    17  -75.985696  -76.024209    0.038513   1.000   0.001370   0.000191
         62    16  -75.979792  -76.027198    0.047406   1.000   0.001361   0.000173
         63    17  -75.974355  -76.029337    0.054982   1.000   0.001361   0.000154
         64    17  -75.969978  -76.030739    0.060761   1.000   0.001366   0.000139
         65    16  -75.966101  -76.031871    0.065770   1.000   0.001378   0.000129
         66    16  -75.962717  -76.032791    0.070073   1.000   0.001382   0.000121
         67    17  -75.959527  -76.033056    0.073529   1.000   0.001380   0.000122
         68    17  -75.954702  -76.033069    0.078367   1.000   0.001406   0.000117
         69    16  -75.949110  -76.031889    0.082779   1.000   0.001445   0.000112
         70    16  -75.944216  -76.029796    0.085580   1.000   0.001478   0.000114
         71    16  -75.939112  -76.028853    0.089741   1.000   0.001523   0.000097
         72    16  -75.935360  -76.027090    0.091730   1.000   0.001550   0.000089
         73    17  -75.933510  -76.025232    0.091722   1.000   0.001548   0.000078
         74    17  -75.936406  -76.023214    0.086808   1.000   0.001479   0.000080
         75    17  -75.938894  -76.022036    0.083142   1.000   0.001418   0.000080
         76    17  -75.940163  -76.021516    0.081353   1.000   0.001383   0.000077
         77    16  -75.941377  -76.021054    0.079676   1.000   0.001358   0.000074
         78    16  -75.942440  -76.020745    0.078305   1.000   0.001340   0.000066
         79    16  -75.943528  -76.019870    0.076342   1.000   0.001322   0.000075
         80    16  -75.944114  -76.019440    0.075325   1.000   0.001306   0.000073
         81    17  -75.944211  -76.020020    0.075809   1.000   0.001296   0.000079
         82    17  -75.951077  -76.022441    0.071364   1.000   0.001262   0.000073
         83    17  -75.958206  -76.024455    0.066249   1.000   0.001240   0.000085
         84    17  -75.960909  -76.026862    0.065953   1.000   0.001224   0.000074
         85    16  -75.963131  -76.028641    0.065510   1.000   0.001198   0.000068
         86    17  -75.968949  -76.029368    0.060419   1.000   0.001157   0.000067
         87    17  -75.976891  -76.029157    0.052266   1.000   0.001111   0.000063
         88    17  -75.981727  -76.028366    0.046640   1.000   0.001077   0.000069
         89    17  -75.981007  -76.027986    0.046979   1.000   0.001076   0.000108
         90    16  -75.982805  -76.028977    0.046172   1.000   0.001028   0.000079
         91    17  -75.983298  -76.029988    0.046690   1.000   0.000999   0.000072
         92    17  -75.981890  -76.030567    0.048676   1.000   0.000984   0.000079
         93    16  -75.979011  -76.031088    0.052077   1.000   0.001003   0.000070
         94    16  -75.975723  -76.030621    0.054898   1.000   0.001024   0.000098
         95    16  -75.973166  -76.030071    0.056905   1.000   0.001041   0.000079
         96    17  -75.972481  -76.028648    0.056167   1.000   0.001037   0.000073
         97    17  -75.972698  -76.027389    0.054692   1.000   0.001025   0.000076
         98    16  -75.972548  -76.026892    0.054345   1.000   0.001020   0.000063
         99    17  -75.974487  -76.025611    0.051124   1.000   0.000975   0.000062
        100    17  -75.974369  -76.024547    0.050178   1.000   0.000960   0.000054
        101    16  -75.974004  -76.023625    0.049621   1.000   0.000951   0.000046
        102    16  -75.973390  -76.022708    0.049318   1.000   0.000952   0.000041
        103    16  -75.973311  -76.021831    0.048520   1.000   0.000943   0.000036
        104    17  -75.973569  -76.020344    0.046775   1.000   0.000924   0.000040
        105    17  -75.973151  -76.019094    0.045942   1.000   0.000917   0.000043
        106    16  -75.972985  -76.018096    0.045111   1.000   0.000907   0.000040
        107    16  -75.973154  -76.017044    0.043891   1.000   0.000895   0.000044
        108    16  -75.973859  -76.016277    0.042419   1.000   0.000882   0.000041
        109    17  -75.974833  -76.015311    0.040478   1.000   0.000871   0.000041
        110    17  -75.975848  -76.014517    0.038668   1.000   0.000863   0.000040
        111    16  -75.976785  -76.013902    0.037117   1.000   0.000858   0.000037
        112    16  -75.977642  -76.013461    0.035820   1.000   0.000854   0.000034
        113    17  -75.978975  -76.013209    0.034234   1.000   0.000839   0.000032
        114    17  -75.980886  -76.013259    0.032373   1.000   0.000810   0.000034
        115    17  -75.981956  -76.013743    0.031787   1.000   0.000795   0.000031
        116    16  -75.983124  -76.014510    0.031386   1.000   0.000780   0.000029
        117    16  -75.984146  -76.015459    0.031313   1.000   0.000768   0.000026
        118    16  -75.984863  -76.016532    0.031669   1.000   0.000759   0.000024
        119    17  -75.985210  -76.017645    0.032435   1.000   0.000753   0.000024
        120    17  -75.985205  -76.018742    0.033537   1.000   0.000749   0.000028
        121    16  -75.984943  -76.019901    0.034958   1.000   0.000749   0.000027
        122    16  -75.984509  -76.020730    0.036220   1.000   0.000749   0.000029
        123    17  -75.983879  -76.021394    0.037515   1.000   0.000750   0.000031
        124    16  -75.983088  -76.021852    0.038763   1.000   0.000753   0.000031
        125    17  -75.982210  -76.022064    0.039855   1.000   0.000758   0.000030
        126    17  -75.981319  -76.022014    0.040695   1.000   0.000764   0.000029
        127    16  -75.980406  -76.021749    0.041343   1.000   0.000770   0.000033
        128    16  -75.979027  -76.021537    0.042510   1.000   0.000780   0.000029
        129    16  -75.979342  -76.020964    0.041622   1.000   0.000756   0.000032
        130    17  -75.978607  -76.020333    0.041725   1.000   0.000751   0.000028
        131    17  -75.978367  -76.019538    0.041170   1.000   0.000745   0.000027
        132    16  -75.978707  -76.018606    0.039899   1.000   0.000736   0.000034
        133    17  -75.978777  -76.018205    0.039427   1.000   0.000733   0.000026
        134    17  -75.978666  -76.017590    0.038924   1.000   0.000735   0.000023
        135    16  -75.978692  -76.016802    0.038111   1.000   0.000736   0.000022
        136    16  -75.978803  -76.016000    0.037197   1.000   0.000734   0.000022
        137    17  -75.978984  -76.015244    0.036261   1.000   0.000731   0.000021
        138    17  -75.979289  -76.014575    0.035286   1.000   0.000723   0.000024
        139    16  -75.980015  -76.014380    0.034365   1.000   0.000708   0.000022
        140    17  -75.980843  -76.014128    0.033285   1.000   0.000689   0.000024
        141    17  -75.981349  -76.014040    0.032692   1.000   0.000678   0.000026
        142    16  -75.981794  -76.014288    0.032494   1.000   0.000672   0.000026
        143    16  -75.981968  -76.014741    0.032773   1.000   0.000670   0.000023
        144    16  -75.981994  -76.015168    0.033173   1.000   0.000671   0.000020
        145    17  -75.981970  -76.015525    0.033555   1.000   0.000672   0.000019
        146    17  -75.981999  -76.015818    0.033819   1.000   0.000671   0.000017
        147    16  -75.982118  -76.016081    0.033963   1.000   0.000669   0.000016
        148    16  -75.982297  -76.016343    0.034046   1.000   0.000665   0.000015
        149    17  -75.983088  -76.016614    0.033525   1.000   0.000644   0.000018
        150    17  -75.983814  -76.017011    0.033197   1.000   0.000625   0.000018
        151    17  -75.983900  -76.017368    0.033468   1.000   0.000617   0.000017
        152    16  -75.983429  -76.017702    0.034273   1.000   0.000614   0.000017
        153    16  -75.987846  -76.017993    0.030147   1.000   0.000595   0.000025
        154    17  -75.990428  -76.018427    0.028000   1.000   0.000589   0.000023
        155    17  -75.990814  -76.018551    0.027738   1.000   0.000592   0.000019
        156    16  -75.990334  -76.018484    0.028150   1.000   0.000597   0.000017
        157    16  -75.989546  -76.018182    0.028636   1.000   0.000601   0.000015
        158    16  -75.988857  -76.017695    0.028837   1.000   0.000603   0.000013
        159    17  -75.988463  -76.017110    0.028647   1.000   0.000602   0.000013
        160    16  -75.988290  -76.016569    0.028278   1.000   0.000600   0.000019
        161    17  -75.987960  -76.016261    0.028301   1.000   0.000600   0.000017
        162    17  -75.987667  -76.015907    0.028240   1.000   0.000601   0.000014
        163    16  -75.987467  -76.015522    0.028055   1.000   0.000601   0.000011
        164    16  -75.987468  -76.015111    0.027643   1.000   0.000600   0.000011
        165    17  -75.987721  -76.014718    0.026997   1.000   0.000597   0.000012
        166    17  -75.988178  -76.014391    0.026213   1.000   0.000593   0.000012
        167    16  -75.988726  -76.014165    0.025439   1.000   0.000588   0.000012
        168    16  -75.989243  -76.014047    0.024804   1.000   0.000583   0.000014
        169    17  -75.989420  -76.014146    0.024726   1.000   0.000581   0.000017
        170    17  -75.989178  -76.014381    0.025203   1.000   0.000582   0.000014
        171    16  -75.988806  -76.014534    0.025728   1.000   0.000585   0.000013
        172    16  -75.988420  -76.014637    0.026218   1.000   0.000587   0.000020
        173    17  -75.988405  -76.015077    0.026672   1.000   0.000581   0.000018
        174    17  -75.988634  -76.015436    0.026802   1.000   0.000573   0.000017
        175    17  -75.988492  -76.015737    0.027246   1.000   0.000570   0.000015
        176    16  -75.988181  -76.015946    0.027765   1.000   0.000569   0.000013
        177    16  -75.987826  -76.016035    0.028208   1.000   0.000570   0.000011
        178    16  -75.987562  -76.016021    0.028459   1.000   0.000571   0.000010
        179    17  -75.987459  -76.015940    0.028481   1.000   0.000570   0.000010
        180    16  -75.987518  -76.015830    0.028312   1.000   0.000569   0.000010
        181    17  -75.987689  -76.015720    0.028032   1.000   0.000566   0.000010
        182    17  -75.987904  -76.015629    0.027725   1.000   0.000563   0.000010
        183    16  -75.988099  -76.015559    0.027460   1.000   0.000561   0.000010
        184    16  -75.988217  -76.015513    0.027296   1.000   0.000558   0.000010
        185    17  -75.988243  -76.015463    0.027220   1.000   0.000557   0.000010
        186    17  -75.988194  -76.015397    0.027203   1.000   0.000556   0.000010
        187    16  -75.988095  -76.015310    0.027216   1.000   0.000555   0.000010
        188    16  -75.987979  -76.015198    0.027219   1.000   0.000555   0.000010
        189    17  -75.987880  -76.015065    0.027184   1.000   0.000554   0.000019
        190    17  -75.988104  -76.015252    0.027149   1.000   0.000548   0.000021
        191    16  -75.988390  -76.015583    0.027193   1.000   0.000540   0.000018
        192    17  -75.988845  -76.015770    0.026925   1.000   0.000523   0.000019
        193    17  -75.988489  -76.015893    0.027404   1.000   0.000521   0.000016
        194    16  -75.987817  -76.015869    0.028051   1.000   0.000524   0.000014
        195    16  -75.991173  -76.015652    0.024479   1.000   0.000509   0.000018
        196    17  -75.993176  -76.015455    0.022278   1.000   0.000502   0.000017
        197    17  -75.993819  -76.015332    0.021514   1.000   0.000500   0.000022
        198    16  -75.993814  -76.015463    0.021649   1.000   0.000503   0.000020
        199    16  -75.993528  -76.015549    0.022021   1.000   0.000506   0.000019
        200    16  -75.993230  -76.015562    0.022332   1.000   0.000507   0.000016
        201    16  -75.993034  -76.015540    0.022506   1.000   0.000508   0.000015
        202    17  -75.992940  -76.015514    0.022574   1.000   0.000508   0.000014
        203    17  -75.992902  -76.015492    0.022591   1.000   0.000507   0.000013
        204    16  -75.992873  -76.015468    0.022595   1.000   0.000506   0.000012
        205    16  -75.992830  -76.015424    0.022595   1.000   0.000505   0.000011
        206    17  -75.992768  -76.015347    0.022579   1.000   0.000504   0.000009
        207    17  -75.992699  -76.015227    0.022529   1.000   0.000503   0.000009
        208    16  -75.992635  -76.015065    0.022430   1.000   0.000503   0.000009
        209    17  -75.992592  -76.014866    0.022275   1.000   0.000502   0.000009
        210    16  -75.992579  -76.014643    0.022064   1.000   0.000502   0.000009
        211    17  -75.992605  -76.014410    0.021805   1.000   0.000500   0.000020
        212    17  -75.992555  -76.014487    0.021932   1.000   0.000503   0.000018
        213    16  -75.992511  -76.014594    0.022083   1.000   0.000504   0.000018
        214    16  -75.992464  -76.014684    0.022220   1.000   0.000505   0.000017
        215    17  -75.992423  -76.014725    0.022302   1.000   0.000505   0.000015
        216    17  -75.992650  -76.014735    0.022085   1.000   0.000500   0.000016
        217    17  -75.993264  -76.014920    0.021656   1.000   0.000485   0.000018
        218    17  -75.993297  -76.015013    0.021716   1.000   0.000481   0.000016
        219    16  -75.993252  -76.015066    0.021815   1.000   0.000478   0.000014
        220    16  -75.993140  -76.015047    0.021908   1.000   0.000478   0.000011
        221    16  -75.993006  -76.014956    0.021950   1.000   0.000478   0.000009
        222    17  -75.992886  -76.014811    0.021925   1.000   0.000478   0.000008
        223    17  -75.992798  -76.014631    0.021833   1.000   0.000478   0.000007
        224    16  -75.992753  -76.014433    0.021681   1.000   0.000478   0.000009
        225    17  -75.992734  -76.014287    0.021553   1.000   0.000477   0.000013
        226    16  -75.992731  -76.014234    0.021503   1.000   0.000478   0.000012
        227    17  -75.992802  -76.014104    0.021302   1.000   0.000478   0.000013
        228    17  -75.992897  -76.014026    0.021129   1.000   0.000477   0.000012
        229    16  -75.992985  -76.014001    0.021016   1.000   0.000477   0.000011
        230    16  -75.993049  -76.014012    0.020963   1.000   0.000476   0.000010
        231    17  -75.993081  -76.014036    0.020955   1.000   0.000476   0.000008
        232    17  -75.993078  -76.014053    0.020975   1.000   0.000476   0.000007
        233    16  -75.993046  -76.014049    0.021004   1.000   0.000476   0.000006
        234    17  -75.992996  -76.014016    0.021021   1.000   0.000475   0.000008
        235    16  -75.992855  -76.014042    0.021187   1.000   0.000477   0.000010
        236    17  -75.992683  -76.014038    0.021355   1.000   0.000481   0.000010
        237    17  -75.992575  -76.013960    0.021385   1.000   0.000484   0.000009
        238    16  -75.992547  -76.013857    0.021310   1.000   0.000486   0.000008
        239    16  -75.992588  -76.013749    0.021160   1.000   0.000485   0.000008
        240    17  -75.993747  -76.013656    0.019909   1.000   0.000462   0.000016
        241    17  -75.995636  -76.013758    0.018122   1.000   0.000423   0.000024
        242    17  -75.996103  -76.014108    0.018005   1.000   0.000409   0.000022
        243    17  -75.996471  -76.014472    0.018000   1.000   0.000400   0.000021
        244    16  -75.996707  -76.014799    0.018092   1.000   0.000396   0.000021
        245    16  -75.996806  -76.015083    0.018278   1.000   0.000395   0.000021
        246    16  -75.996762  -76.015332    0.018571   1.000   0.000394   0.000025
        247    16  -75.996454  -76.015791    0.019337   1.000   0.000393   0.000023
        248    17  -75.996192  -76.015955    0.019764   1.000   0.000386   0.000021
        249    17  -75.995878  -76.016029    0.020151   1.000   0.000380   0.000018
        250    16  -75.995627  -76.016012    0.020385   1.000   0.000376   0.000015
        251    16  -75.995449  -76.015860    0.020411   1.000   0.000374   0.000013
        252    17  -75.995307  -76.015570    0.020263   1.000   0.000373   0.000011
        253    17  -75.995157  -76.015176    0.020019   1.000   0.000374   0.000012
        254    16  -75.995135  -76.014832    0.019696   1.000   0.000373   0.000022
        255    16  -75.995752  -76.014699    0.018947   1.000   0.000362   0.000021
        256    17  -75.996007  -76.014502    0.018495   1.000   0.000357   0.000021
        257    17  -75.995968  -76.014324    0.018357   1.000   0.000356   0.000020
        258    16  -75.995811  -76.014121    0.018310   1.000   0.000358   0.000020
        259    16  -75.995638  -76.013890    0.018252   1.000   0.000361   0.000019
        260    16  -75.995517  -76.013656    0.018139   1.000   0.000364   0.000019
        261    16  -75.995454  -76.013462    0.018008   1.000   0.000366   0.000020
        262    17  -75.995647  -76.013354    0.017706   1.000   0.000364   0.000019
        263    17  -75.995904  -76.013290    0.017386   1.000   0.000359   0.000017
        264    16  -75.996000  -76.013284    0.017284   1.000   0.000357   0.000014
        265    16  -75.995996  -76.013273    0.017277   1.000   0.000356   0.000012
        266    17  -75.995948  -76.013247    0.017299   1.000   0.000357   0.000009
        267    17  -75.995900  -76.013213    0.017313   1.000   0.000359   0.000008
        268    16  -75.995875  -76.013184    0.017309   1.000   0.000360   0.000008
        269    16  -75.995883  -76.013170    0.017287   1.000   0.000360   0.000008
        270    17  -75.995924  -76.013175    0.017252   1.000   0.000360   0.000009
        271    17  -75.996513  -76.013202    0.016689   1.000   0.000346   0.000014
        272    17  -75.996807  -76.013354    0.016547   1.000   0.000337   0.000014
        273    17  -75.996972  -76.013511    0.016539   1.000   0.000331   0.000014
        274    16  -75.997165  -76.013648    0.016483   1.000   0.000326   0.000013
        275    16  -75.997342  -76.013780    0.016439   1.000   0.000322   0.000011
        276    16  -75.997456  -76.013902    0.016446   1.000   0.000319   0.000010
        277    17  -75.997475  -76.013992    0.016517   1.000   0.000318   0.000009
        278    17  -75.997399  -76.014023    0.016624   1.000   0.000317   0.000008
        279    16  -75.997262  -76.013980    0.016718   1.000   0.000317   0.000007
        280    17  -75.997116  -76.013865    0.016748   1.000   0.000318   0.000007
        281    16  -75.997012  -76.013696    0.016684   1.000   0.000318   0.000007
        282    17  -75.996978  -76.013502    0.016524   1.000   0.000318   0.000007
        283    17  -75.997022  -76.013315    0.016293   1.000   0.000317   0.000006
        284    16  -75.997127  -76.013159    0.016032   1.000   0.000316   0.000006
        285    16  -75.997266  -76.013052    0.015786   1.000   0.000315   0.000006
        286    17  -75.997408  -76.012998    0.015590   1.000   0.000314   0.000006
        287    17  -75.997529  -76.012993    0.015463   1.000   0.000313   0.000006
        288    16  -75.997615  -76.013026    0.015411   1.000   0.000312   0.000006
        289    16  -75.997663  -76.013084    0.015421   1.000   0.000311   0.000006
        290    17  -75.997679  -76.013153    0.015474   1.000   0.000311   0.000005
        291    17  -75.997675  -76.013222    0.015548   1.000   0.000311   0.000005
        292    16  -75.997663  -76.013284    0.015621   1.000   0.000310   0.000005
        293    16  -75.997654  -76.013332    0.015678   1.000   0.000310   0.000005
        294    17  -75.997656  -76.013365    0.015710   1.000   0.000310   0.000005
        295    17  -75.997672  -76.013384    0.015712   1.000   0.000309   0.000005
        296    16  -75.997701  -76.013389    0.015687   1.000   0.000308   0.000005
        297    17  -75.997742  -76.013382    0.015640   1.000   0.000307   0.000005
        298    16  -75.997788  -76.013366    0.015577   1.000   0.000305   0.000005
        299    17  -75.997837  -76.013342    0.015505   1.000   0.000304   0.000005
        300    17  -75.997883  -76.013313    0.015429   1.000   0.000303   0.000004
        301    16  -75.997925  -76.013279    0.015354   1.000   0.000302   0.000004
        302    16  -75.997961  -76.013243    0.015282   1.000   0.000301   0.000004
        303    17  -75.997991  -76.013205    0.015215   1.000   0.000301   0.000004
        304    17  -75.998015  -76.013168    0.015153   1.000   0.000300   0.000004
        305    16  -76.000720  -76.013132    0.012412   1.000   0.000287   0.000009
        306    17  -76.002850  -76.013196    0.010345   1.000   0.000278   0.000010
        307    17  -76.003463  -76.013320    0.009857   1.000   0.000277   0.000008
        308    16  -76.003404  -76.013393    0.009989   1.000   0.000279   0.000006
        309    16  -76.003047  -76.013381    0.010333   1.000   0.000282   0.000005
        310    16  -76.002714  -76.013310    0.010597   1.000   0.000284   0.000004
        311    16  -76.002548  -76.013219    0.010672   1.000   0.000284   0.000004
        312    17  -76.002550  -76.013136    0.010586   1.000   0.000283   0.000004
        313    17  -76.002653  -76.013074    0.010420   1.000   0.000281   0.000004
        314    16  -76.002788  -76.013037    0.010250   1.000   0.000279   0.000004
        315    16  -76.002907  -76.013023    0.010117   1.000   0.000277   0.000004
        316    17  -76.002991  -76.013024    0.010032   1.000   0.000276   0.000004
        317    17  -76.003040  -76.013030    0.009990   1.000   0.000275   0.000004
        318    16  -76.003061  -76.013035    0.009973   1.000   0.000274   0.000004
        319    17  -76.003066  -76.013033    0.009967   1.000   0.000274   0.000004
        320    16  -76.003064  -76.013021    0.009957   1.000   0.000274   0.000004
        321    17  -76.003065  -76.013000    0.009936   1.000   0.000274   0.000004
        322    17  -76.003073  -76.012975    0.009902   1.000   0.000274   0.000004
        323    16  -76.003092  -76.012949    0.009857   1.000   0.000273   0.000004
        324    16  -76.003119  -76.012926    0.009806   1.000   0.000273   0.000004
        325    17  -76.003153  -76.012909    0.009756   1.000   0.000272   0.000003
        326    17  -76.003188  -76.012899    0.009712   1.000   0.000272   0.000003
        327    16  -76.003219  -76.012896    0.009676   1.000   0.000271   0.000003
        328    16  -76.003246  -76.012896    0.009650   1.000   0.000271   0.000003
        329    17  -76.003266  -76.012899    0.009633   1.000   0.000270   0.000003
        330    17  -76.003281  -76.012901    0.009620   1.000   0.000270   0.000003
        331    16  -76.003293  -76.012902    0.009609   1.000   0.000269   0.000003
        332    16  -76.003304  -76.012901    0.009597   1.000   0.000269   0.000003
        333    17  -76.003315  -76.012898    0.009582   1.000   0.000269   0.000003
        334    17  -76.003329  -76.012893    0.009563   1.000   0.000268   0.000003
        335    16  -76.003346  -76.012887    0.009541   1.000   0.000268   0.000003
        336    16  -76.003364  -76.012881    0.009517   1.000   0.000267   0.000003
        337    17  -76.003382  -76.012875    0.009492   1.000   0.000267   0.000003
        338    17  -76.003401  -76.012869    0.009468   1.000   0.000266   0.000003
        339    16  -76.003419  -76.012863    0.009443   1.000   0.000266   0.000003
        340    16  -76.003436  -76.012856    0.009420   1.000   0.000265   0.000003
        341    17  -76.003451  -76.012847    0.009396   1.000   0.000265   0.000003
        342    17  -76.003465  -76.012838    0.009372   1.000   0.000265   0.000003
        343    16  -76.003479  -76.012827    0.009347   1.000   0.000264   0.000003
        344    16  -76.005478  -76.012814    0.007336   1.000   0.000254   0.000007
        345    17  -76.007391  -76.012879    0.005487   1.000   0.000244   0.000009
        346    17  -76.007847  -76.013027    0.005179   1.000   0.000243   0.000007
        347    16  -76.007736  -76.013133    0.005397   1.000   0.000246   0.000005
        348    16  -76.007382  -76.013124    0.005742   1.000   0.000249   0.000004
        349    16  -76.007089  -76.013028    0.005939   1.000   0.000251   0.000003
        350    16  -76.006991  -76.012907    0.005916   1.000   0.000251   0.000003
        351    17  -76.007064  -76.012808    0.005744   1.000   0.000250   0.000003
        352    17  -76.007215  -76.012753    0.005538   1.000   0.000247   0.000003
        353    16  -76.007356  -76.012737    0.005381   1.000   0.000245   0.000003
        354    16  -76.007441  -76.012745    0.005305   1.000   0.000244   0.000003
        355    17  -76.007464  -76.012760    0.005296   1.000   0.000243   0.000003
        356    17  -76.007447  -76.012769    0.005322   1.000   0.000243   0.000003
        357    16  -76.007414  -76.012766    0.005352   1.000   0.000243   0.000003
        358    16  -76.007385  -76.012750    0.005365   1.000   0.000244   0.000003
        359    17  -76.007370  -76.012724    0.005353   1.000   0.000244   0.000003
        360    17  -76.007372  -76.012692    0.005320   1.000   0.000244   0.000003
        361    16  -76.007386  -76.012658    0.005272   1.000   0.000244   0.000003
        362    16  -76.007408  -76.012627    0.005219   1.000   0.000243   0.000003
        363    17  -76.007431  -76.012600    0.005169   1.000   0.000243   0.000003
        364    17  -76.007455  -76.012579    0.005124   1.000   0.000242   0.000003
        365    16  -76.007475  -76.012564    0.005089   1.000   0.000242   0.000003
        366    16  -76.007494  -76.012554    0.005060   1.000   0.000242   0.000003
        367    17  -76.007510  -76.012548    0.005038   1.000   0.000241   0.000003
        368    17  -76.007526  -76.012544    0.005019   1.000   0.000241   0.000003
        369    16  -76.007541  -76.012543    0.005003   1.000   0.000241   0.000003
        370    16  -76.007555  -76.012543    0.004988   1.000   0.000241   0.000003
        371    17  -76.007570  -76.012543    0.004973   1.000   0.000240   0.000003
        372    17  -76.007584  -76.012544    0.004960   1.000   0.000240   0.000003
        373    16  -76.007598  -76.012546    0.004948   1.000   0.000240   0.000003
        374    16  -76.007610  -76.012547    0.004937   1.000   0.000240   0.000003
        375    17  -76.007622  -76.012549    0.004927   1.000   0.000239   0.000003
        376    17  -76.007634  -76.012552    0.004918   1.000   0.000239   0.000003
        377    16  -76.007644  -76.012554    0.004910   1.000   0.000239   0.000003
        378    16  -76.007653  -76.012557    0.004904   1.000   0.000238   0.000003
        379    17  -76.007661  -76.012560    0.004898   1.000   0.000238   0.000003
        380    17  -76.007668  -76.012562    0.004894   1.000   0.000238   0.000003
        381    16  -76.007673  -76.012563    0.004890   1.000   0.000238   0.000003
        382    16  -76.007678  -76.012562    0.004885   1.000   0.000237   0.000003
        383    17  -76.007788  -76.012560    0.004772   1.000   0.000235   0.000003
        384    17  -76.008006  -76.012576    0.004570   1.000   0.000229   0.000005
        385    17  -76.008355  -76.012626    0.004271   1.000   0.000221   0.000006
        386    17  -76.009032  -76.012713    0.003682   1.000   0.000207   0.000012
        387    17  -76.009076  -76.012873    0.003797   1.000   0.000204   0.000011
        388    16  -76.009068  -76.012985    0.003918   1.000   0.000203   0.000008
        389    16  -76.009010  -76.013036    0.004026   1.000   0.000203   0.000006
        390    16  -76.008917  -76.013025    0.004108   1.000   0.000204   0.000005
        391    16  -76.008808  -76.012960    0.004153   1.000   0.000205   0.000004
        392    17  -76.008708  -76.012860    0.004152   1.000   0.000206   0.000004
        393    17  -76.008644  -76.012746    0.004102   1.000   0.000206   0.000004
        394    16  -76.008626  -76.012635    0.004009   1.000   0.000206   0.000004
        395    16  -76.008652  -76.012542    0.003889   1.000   0.000205   0.000004
        396    17  -76.008708  -76.012472    0.003764   1.000   0.000204   0.000003
        397    17  -76.009080  -76.012424    0.003343   1.000   0.000197   0.000006
        398    17  -76.009187  -76.012449    0.003262   1.000   0.000193   0.000005
        399    17  -76.009214  -76.012479    0.003265   1.000   0.000192   0.000005
        400    16  -76.009225  -76.012487    0.003262   1.000   0.000191   0.000004
        401    16  -76.009222  -76.012465    0.003243   1.000   0.000191   0.000004
        402    16  -76.009204  -76.012417    0.003213   1.000   0.000191   0.000004
        403    16  -76.009178  -76.012351    0.003173   1.000   0.000192   0.000003
        404    17  -76.009152  -76.012278    0.003126   1.000   0.000192   0.000003
        405    16  -76.009211  -76.012209    0.002998   1.000   0.000191   0.000003
        406    17  -76.009668  -76.012167    0.002499   1.000   0.000181   0.000007
        407    17  -76.009698  -76.012226    0.002527   1.000   0.000179   0.000006
        408    17  -76.009696  -76.012241    0.002545   1.000   0.000177   0.000006
        409    16  -76.009694  -76.012250    0.002556   1.000   0.000176   0.000005
        410    16  -76.009712  -76.012261    0.002549   1.000   0.000176   0.000004
        411    16  -76.009745  -76.012281    0.002536   1.000   0.000176   0.000003
        412    17  -76.009776  -76.012305    0.002529   1.000   0.000176   0.000003
        413    17  -76.009793  -76.012327    0.002534   1.000   0.000175   0.000003
        414    16  -76.009891  -76.012341    0.002450   1.000   0.000174   0.000003
        415    17  -76.010504  -76.012368    0.001863   1.000   0.000162   0.000010
        416    17  -76.010557  -76.012537    0.001979   1.000   0.000160   0.000008
        417    16  -76.010479  -76.012625    0.002146   1.000   0.000160   0.000006
        418    16  -76.010325  -76.012663    0.002338   1.000   0.000161   0.000005
        419    16  -76.010182  -76.012643    0.002461   1.000   0.000163   0.000004
        420    16  -76.010105  -76.012582    0.002477   1.000   0.000164   0.000003
        421    17  -76.010103  -76.012505    0.002402   1.000   0.000165   0.000003
        422    16  -76.010154  -76.012435    0.002282   1.000   0.000164   0.000003
        423    17  -76.010223  -76.012385    0.002162   1.000   0.000162   0.000003
        424    17  -76.010282  -76.012356    0.002074   1.000   0.000161   0.000003
        425    16  -76.010316  -76.012342    0.002027   1.000   0.000160   0.000003
        426    16  -76.010321  -76.012336    0.002014   1.000   0.000159   0.000003
        427    16  -76.010305  -76.012327    0.002022   1.000   0.000159   0.000002
        428    16  -76.010278  -76.012312    0.002033   1.000   0.000159   0.000002
        429    17  -76.010251  -76.012286    0.002035   1.000   0.000159   0.000002
        430    17  -76.010231  -76.012251    0.002021   1.000   0.000160   0.000002
        431    16  -76.010222  -76.012210    0.001988   1.000   0.000160   0.000002
        432    16  -76.010225  -76.012166    0.001942   1.000   0.000160   0.000002
        433    16  -76.010238  -76.012123    0.001886   1.000   0.000160   0.000002
        434    16  -76.010257  -76.012085    0.001827   1.000   0.000159   0.000002
        435    17  -76.010280  -76.012052    0.001772   1.000   0.000159   0.000002
        436    17  -76.010304  -76.012028    0.001724   1.000   0.000159   0.000002
        437    16  -76.010327  -76.012012    0.001685   1.000   0.000159   0.000002
        438    16  -76.010348  -76.012005    0.001656   1.000   0.000158   0.000002
        439    16  -76.010367  -76.012005    0.001637   1.000   0.000158   0.000002
        440    16  -76.010383  -76.012011    0.001628   1.000   0.000158   0.000002
        441    17  -76.010397  -76.012023    0.001626   1.000   0.000158   0.000002
        442    17  -76.010407  -76.012040    0.001633   1.000   0.000158   0.000002
        443    16  -76.010414  -76.012061    0.001647   1.000   0.000158   0.000002
        444    16  -76.010418  -76.012082    0.001665   1.000   0.000158   0.000002
        445    16  -76.010419  -76.012104    0.001685   1.000   0.000157   0.000002
        446    16  -76.010418  -76.012125    0.001706   1.000   0.000157   0.000002
        447    17  -76.010416  -76.012144    0.001728   1.000   0.000157   0.000002
        448    17  -76.010412  -76.012159    0.001748   1.000   0.000157   0.000002
        449    16  -76.010407  -76.012172    0.001765   1.000   0.000157   0.000002
        450    16  -76.010402  -76.012180    0.001778   1.000   0.000157   0.000002
        451    16  -76.010397  -76.012185    0.001788   1.000   0.000157   0.000002
        452    16  -76.010392  -76.012185    0.001793   1.000   0.000156   0.000002
        453    17  -76.010388  -76.012181    0.001793   1.000   0.000156   0.000002
        454    16  -76.010384  -76.012174    0.001790   1.000   0.000156   0.000002
        455    17  -76.010381  -76.012164    0.001782   1.000   0.000156   0.000002
        456    17  -76.010379  -76.012150    0.001772   1.000   0.000156   0.000002
        457    16  -76.010377  -76.012135    0.001758   1.000   0.000156   0.000002
        458    16  -76.010376  -76.012118    0.001742   1.000   0.000155   0.000002
        459    16  -76.010375  -76.012099    0.001725   1.000   0.000155   0.000002
        460    16  -76.010375  -76.012081    0.001706   1.000   0.000155   0.000002
        461    17  -76.010376  -76.012062    0.001686   1.000   0.000155   0.000005
        462    17  -76.010409  -76.012116    0.001707   1.000   0.000153   0.000015
        463    16  -76.010507  -76.012380    0.001873   1.000   0.000152   0.000010
        464    16  -76.010471  -76.012549    0.002078   1.000   0.000151   0.000009
        465    16  -76.010348  -76.012640    0.002292   1.000   0.000152   0.000008
        466    16  -76.010199  -76.012650    0.002451   1.000   0.000153   0.000006
        467    17  -76.010069  -76.012597    0.002528   1.000   0.000154   0.000004
        468    17  -76.009981  -76.012504    0.002523   1.000   0.000154   0.000004
        469    16  -76.009941  -76.012391    0.002451   1.000   0.000154   0.000004
        470    16  -76.010288  -76.012276    0.001988   1.000   0.000147   0.000007
        471    17  -76.010445  -76.012236    0.001792   1.000   0.000144   0.000006
        472    17  -76.010403  -76.012217    0.001814   1.000   0.000144   0.000005
        473    16  -76.010276  -76.012184    0.001908   1.000   0.000145   0.000004
        474    16  -76.010176  -76.012123    0.001947   1.000   0.000146   0.000003
        475    16  -76.010161  -76.012043    0.001882   1.000   0.000146   0.000003
        476    16  -76.010226  -76.011966    0.001740   1.000   0.000146   0.000003
        477    17  -76.010322  -76.011906    0.001584   1.000   0.000145   0.000003
        478    16  -76.010402  -76.011867    0.001465   1.000   0.000145   0.000003
        479    17  -76.010441  -76.011846    0.001405   1.000   0.000144   0.000003
        480    17  -76.010442  -76.011834    0.001393   1.000   0.000144   0.000002
        481    16  -76.010420  -76.011825    0.001405   1.000   0.000144   0.000002
        482    16  -76.010395  -76.011815    0.001420   1.000   0.000144   0.000002
        483    16  -76.010379  -76.011804    0.001425   1.000   0.000144   0.000002
        484    17  -76.010375  -76.011793    0.001419   1.000   0.000144   0.000002
        485    17  -76.010380  -76.011785    0.001405   1.000   0.000144   0.000002
        486    16  -76.010391  -76.011781    0.001390   1.000   0.000144   0.000005
        487    16  -76.010344  -76.011852    0.001508   1.000   0.000144   0.000009
        488    16  -76.010211  -76.011984    0.001773   1.000   0.000146   0.000008
        489    17  -76.010112  -76.012033    0.001921   1.000   0.000147   0.000009
        490    17  -76.010033  -76.012104    0.002070   1.000   0.000148   0.000009
        491    16  -76.009963  -76.012196    0.002233   1.000   0.000149   0.000009
        492    16  -76.009892  -76.012298    0.002405   1.000   0.000150   0.000008
        493    16  -76.009820  -76.012397    0.002577   1.000   0.000151   0.000007
        494    16  -76.009745  -76.012483    0.002738   1.000   0.000151   0.000006
        495    16  -76.009668  -76.012545    0.002878   1.000   0.000151   0.000004
        496    17  -76.009592  -76.012577    0.002986   1.000   0.000151   0.000003
        497    17  -76.009521  -76.012575    0.003054   1.000   0.000151   0.000003
        498    16  -76.010002  -76.012539    0.002536   1.000   0.000140   0.000009
        499    17  -76.009931  -76.012572    0.002641   1.000   0.000138   0.000009
        500    17  -76.009838  -76.012549    0.002711   1.000   0.000137   0.000009
        501    16  -76.009791  -76.012479    0.002688   1.000   0.000136   0.000008
        502    16  -76.009798  -76.012377    0.002579   1.000   0.000135   0.000007
        503    16  -76.009829  -76.012258    0.002429   1.000   0.000135   0.000005
        504    16  -76.009852  -76.012129    0.002277   1.000   0.000135   0.000004
        505    16  -76.009853  -76.011991    0.002139   1.000   0.000135   0.000003
        506    17  -76.009841  -76.011850    0.002009   1.000   0.000135   0.000003
        507    17  -76.009836  -76.011711    0.001875   1.000   0.000135   0.000004
        508    16  -76.009851  -76.011585    0.001734   1.000   0.000135   0.000004
        509    16  -76.009888  -76.011480    0.001593   1.000   0.000135   0.000004
        510    16  -76.009938  -76.011406    0.001467   1.000   0.000134   0.000004
        511    17  -76.009992  -76.011363    0.001371   1.000   0.000134   0.000004
        512    17  -76.010038  -76.011350    0.001312   1.000   0.000134   0.000003
        513    16  -76.010072  -76.011364    0.001292   1.000   0.000134   0.000003
        514    16  -76.010092  -76.011398    0.001307   1.000   0.000134   0.000003
        515    16  -76.010100  -76.011447    0.001347   1.000   0.000134   0.000003
        516    17  -76.010101  -76.011504    0.001403   1.000   0.000135   0.000003
        517    17  -76.010099  -76.011566    0.001467   1.000   0.000135   0.000003
        518    16  -76.010095  -76.011628    0.001533   1.000   0.000135   0.000003
        519    16  -76.010092  -76.011689    0.001597   1.000   0.000135   0.000002
        520    16  -76.010092  -76.011748    0.001656   1.000   0.000135   0.000002
        521    17  -76.010094  -76.011803    0.001709   1.000   0.000135   0.000002
        522    17  -76.010097  -76.011853    0.001757   1.000   0.000134   0.000002
        523    16  -76.010100  -76.011900    0.001800   1.000   0.000134   0.000002
        524    16  -76.010103  -76.011942    0.001839   1.000   0.000134   0.000002
        525    16  -76.010103  -76.011978    0.001875   1.000   0.000134   0.000002
        526    17  -76.010099  -76.012008    0.001909   1.000   0.000133   0.000002
        527    17  -76.010091  -76.012031    0.001940   1.000   0.000133   0.000002
        528    16  -76.010078  -76.012046    0.001968   1.000   0.000133   0.000002
        529    16  -76.010060  -76.012052    0.001992   1.000   0.000133   0.000002
        530    16  -76.010038  -76.012050    0.002012   1.000   0.000132   0.000006
        531    17  -76.010045  -76.012131    0.002086   1.000   0.000131   0.000005
        532    16  -76.010038  -76.012174    0.002136   1.000   0.000131   0.000005
        533    17  -76.010024  -76.012208    0.002184   1.000   0.000131   0.000004
        534    17  -76.010011  -76.012228    0.002217   1.000   0.000130   0.000003
        535    16  -76.010002  -76.012234    0.002232   1.000   0.000130   0.000003
        536    16  -76.009994  -76.012226    0.002232   1.000   0.000129   0.000003
        537    16  -76.009980  -76.012201    0.002221   1.000   0.000129   0.000003
        538    16  -76.009960  -76.012161    0.002201   1.000   0.000129   0.000002
        539    17  -76.009932  -76.012104    0.002172   1.000   0.000129   0.000002
        540    17  -76.009901  -76.012032    0.002131   1.000   0.000129   0.000002
        541    16  -76.009871  -76.011949    0.002078   1.000   0.000128   0.000002
        542    16  -76.009845  -76.011857    0.002012   1.000   0.000129   0.000002
        543    16  -76.009825  -76.011762    0.001936   1.000   0.000129   0.000002
        544    17  -76.009814  -76.011669    0.001855   1.000   0.000129   0.000002
        545    17  -76.009811  -76.011582    0.001771   1.000   0.000129   0.000002
        546    16  -76.009817  -76.011505    0.001689   1.000   0.000123   0.000005
        547    16  -76.009617  -76.011566    0.001949   1.000   0.000126   0.000003
        548    16  -76.009386  -76.011526    0.002140   1.000   0.000128   0.000002
        549    17  -76.009286  -76.011445    0.002159   1.000   0.000128   0.000002
        550    17  -76.009317  -76.011392    0.002075   1.000   0.000128   0.000002
        551    16  -76.009414  -76.011372    0.001958   1.000   0.000128   0.000002
        552    16  -76.009515  -76.011380    0.001864   1.000   0.000128   0.000002
        553    16  -76.009588  -76.011407    0.001818   1.000   0.000127   0.000002
        554    17  -76.009893  -76.011446    0.001553   1.000   0.000122   0.000005
        555    17  -76.010017  -76.011540    0.001523   1.000   0.000119   0.000004
        556    17  -76.009950  -76.011645    0.001695   1.000   0.000118   0.000004
        557    16  -76.010257  -76.011723    0.001466   1.000   0.000111   0.000007
        558    17  -76.010297  -76.011842    0.001545   1.000   0.000108   0.000007
        559    17  -76.010268  -76.011949    0.001682   1.000   0.000108   0.000009
        560    16  -76.010296  -76.012036    0.001740   1.000   0.000107   0.000010
        561    16  -76.010348  -76.012108    0.001759   1.000   0.000107   0.000010
        562    16  -76.010389  -76.012160    0.001771   1.000   0.000108   0.000009
        563    16  -76.010395  -76.012188    0.001793   1.000   0.000108   0.000008
        564    16  -76.010363  -76.012187    0.001824   1.000   0.000108   0.000006
        565    17  -76.010329  -76.012160    0.001830   1.000   0.000108   0.000005
        566    17  -76.010272  -76.012118    0.001845   1.000   0.000107   0.000004
        567    16  -76.010211  -76.012060    0.001849   1.000   0.000107   0.000004
        568    16  -76.010158  -76.011996    0.001838   1.000   0.000107   0.000004
        569    16  -76.010116  -76.011933    0.001817   1.000   0.000107   0.000005
        570    17  -76.010015  -76.011929    0.001915   1.000   0.000107   0.000008
        571    17  -76.009783  -76.012004    0.002222   1.000   0.000111   0.000006
        572    16  -76.009619  -76.011986    0.002367   1.000   0.000114   0.000006
        573    16  -76.009537  -76.011936    0.002399   1.000   0.000115   0.000005
        574    16  -76.009509  -76.011872    0.002363   1.000   0.000115   0.000004
        575    17  -76.009503  -76.011806    0.002303   1.000   0.000115   0.000004
        576    17  -76.009501  -76.011740    0.002240   1.000   0.000114   0.000003
        577    16  -76.009498  -76.011674    0.002176   1.000   0.000113   0.000003
        578    16  -76.009500  -76.011605    0.002105   1.000   0.000112   0.000002
        579    17  -76.009509  -76.011534    0.002025   1.000   0.000112   0.000003
        580    16  -76.009530  -76.011462    0.001932   1.000   0.000111   0.000003
        581    17  -76.009561  -76.011392    0.001830   1.000   0.000111   0.000003
        582    17  -76.009603  -76.011326    0.001724   1.000   0.000111   0.000003
        583    16  -76.009651  -76.011270    0.001619   1.000   0.000112   0.000004
        584    16  -76.009704  -76.011227    0.001523   1.000   0.000111   0.000004
        585    17  -76.009757  -76.011200    0.001443   1.000   0.000111   0.000003
        586    16  -76.009808  -76.011191    0.001383   1.000   0.000111   0.000003
        587    17  -76.009854  -76.011202    0.001348   1.000   0.000111   0.000003
        588    17  -76.009891  -76.011231    0.001340   1.000   0.000111   0.000002
        589    16  -76.009917  -76.011278    0.001361   1.000   0.000111   0.000002
        590    16  -76.009930  -76.011338    0.001408   1.000   0.000111   0.000002
        591    16  -76.009930  -76.011409    0.001479   1.000   0.000111   0.000002
        592    17  -76.009918  -76.011485    0.001566   1.000   0.000111   0.000002
        593    17  -76.009896  -76.011562    0.001666   1.000   0.000112   0.000002
        594    16  -76.009867  -76.011636    0.001769   1.000   0.000112   0.000002
        595    16  -76.009833  -76.011705    0.001872   1.000   0.000112   0.000002
        596    16  -76.009797  -76.011764    0.001966   1.000   0.000112   0.000002
        597    17  -76.009763  -76.011812    0.002050   1.000   0.000112   0.000002
        598    17  -76.009731  -76.011849    0.002118   1.000   0.000112   0.000002
        599    16  -76.009703  -76.011872    0.002169   1.000   0.000112   0.000002
        600    16  -76.009680  -76.011883    0.002203   1.000   0.000111   0.000002
        601    17  -76.009661  -76.011882    0.002221   1.000   0.000111   0.000002
        602    16  -76.009914  -76.011869    0.001955   1.000   0.000104   0.000005
        603    17  -76.010162  -76.011901    0.001739   1.000   0.000098   0.000007
        604    17  -76.010207  -76.011951    0.001743   1.000   0.000094   0.000008
        605    16  -76.010205  -76.011999    0.001794   1.000   0.000092   0.000009
        606    16  -76.010156  -76.012035    0.001879   1.000   0.000090   0.000008
        607    16  -76.010097  -76.012012    0.001915   1.000   0.000090   0.000007
        608    16  -76.010030  -76.011953    0.001923   1.000   0.000090   0.000006
        609    16  -76.009955  -76.011861    0.001906   1.000   0.000090   0.000005
        610    17  -76.009882  -76.011745    0.001862   1.000   0.000090   0.000005
        611    17  -76.009828  -76.011614    0.001786   1.000   0.000091   0.000005
        612    16  -76.009832  -76.011480    0.001648   1.000   0.000091   0.000004
        613    16  -76.009845  -76.011362    0.001517   1.000   0.000091   0.000004
        614    17  -76.009883  -76.011256    0.001373   1.000   0.000091   0.000004
        615    17  -76.009940  -76.011170    0.001229   1.000   0.000091   0.000004
        616    16  -76.010005  -76.011107    0.001102   1.000   0.000091   0.000004
        617    16  -76.010065  -76.011068    0.001003   1.000   0.000091   0.000003
        618    16  -76.010116  -76.011053    0.000937   1.000   0.000091   0.000003
        619    17  -76.010156  -76.011060    0.000904   1.000   0.000091   0.000003
        620    17  -76.010184  -76.011087    0.000902   1.000   0.000091   0.000003
        621    16  -76.010205  -76.011131    0.000926   1.000   0.000091   0.000003
        622    16  -76.010218  -76.011190    0.000972   1.000   0.000091   0.000003
        623    16  -76.010226  -76.011261    0.001035   1.000   0.000091   0.000003
        624    17  -76.010229  -76.011339    0.001110   1.000   0.000091   0.000002
        625    17  -76.010226  -76.011420    0.001193   1.000   0.000091   0.000002
        626    16  -76.010219  -76.011500    0.001281   1.000   0.000091   0.000002
        627    16  -76.010208  -76.011577    0.001370   1.000   0.000091   0.000002
        628    17  -76.010193  -76.011647    0.001454   1.000   0.000091   0.000002
        629    16  -76.010175  -76.011708    0.001532   1.000   0.000091   0.000002
        630    17  -76.010156  -76.011757    0.001601   1.000   0.000091   0.000002
        631    17  -76.010136  -76.011796    0.001660   1.000   0.000090   0.000002
        632    16  -76.010115  -76.011822    0.001707   1.000   0.000090   0.000002
        633    16  -76.010094  -76.011836    0.001742   1.000   0.000090   0.000002
        634    17  -76.010073  -76.011838    0.001765   1.000   0.000090   0.000002
        635    17  -76.010410  -76.011829    0.001419   1.000   0.000084   0.000005
        636    17  -76.010483  -76.011867    0.001384   1.000   0.000082   0.000005
        637    17  -76.010477  -76.011895    0.001418   1.000   0.000080   0.000006
        638    16  -76.010473  -76.011896    0.001423   1.000   0.000079   0.000006
        639    16  -76.010476  -76.011870    0.001395   1.000   0.000078   0.000005
        640    16  -76.010479  -76.011825    0.001346   1.000   0.000077   0.000004
        641    16  -76.010472  -76.011764    0.001291   1.000   0.000077   0.000003
        642    17  -76.010453  -76.011689    0.001236   1.000   0.000077   0.000002
        643    17  -76.010425  -76.011603    0.001178   1.000   0.000077   0.000002
        644    16  -76.010396  -76.011513    0.001116   1.000   0.000077   0.000003
        645    16  -76.010374  -76.011423    0.001049   1.000   0.000077   0.000003
        646    17  -76.010364  -76.011342    0.000978   1.000   0.000078   0.000003
        647    17  -76.010365  -76.011274    0.000909   1.000   0.000078   0.000003
        648    16  -76.010378  -76.011223    0.000845   1.000   0.000079   0.000002
        649    16  -76.010398  -76.011190    0.000792   1.000   0.000079   0.000002
        650    17  -76.010424  -76.011174    0.000751   1.000   0.000079   0.000002
        651    17  -76.010450  -76.011173    0.000722   1.000   0.000079   0.000002
        652    16  -76.010476  -76.011182    0.000706   1.000   0.000079   0.000002
        653    16  -76.010499  -76.011200    0.000701   1.000   0.000079   0.000002
        654    17  -76.010518  -76.011223    0.000705   1.000   0.000078   0.000002
        655    17  -76.010533  -76.011250    0.000717   1.000   0.000078   0.000002
        656    16  -76.010544  -76.011278    0.000734   1.000   0.000078   0.000002
        657    16  -76.010551  -76.011307    0.000756   1.000   0.000078   0.000002
        658    17  -76.010556  -76.011337    0.000781   1.000   0.000078   0.000001
        659    17  -76.010558  -76.011368    0.000810   1.000   0.000078   0.000001
        660    16  -76.010559  -76.011400    0.000841   1.000   0.000078   0.000001
        661    16  -76.010558  -76.011433    0.000875   1.000   0.000078   0.000001
        662    17  -76.010556  -76.011466    0.000910   1.000   0.000078   0.000001
        663    17  -76.010551  -76.011498    0.000947   1.000   0.000078   0.000001
        664    16  -76.010545  -76.011529    0.000984   1.000   0.000078   0.000001
        665    16  -76.010537  -76.011557    0.001020   1.000   0.000078   0.000001
        666    17  -76.010527  -76.011581    0.001054   1.000   0.000078   0.000001
        667    17  -76.010516  -76.011599    0.001084   1.000   0.000078   0.000001
        668    16  -76.010502  -76.011612    0.001110   1.000   0.000077   0.000001
        669    16  -76.010487  -76.011616    0.001129   1.000   0.000077   0.000001
        670    17  -76.010471  -76.011614    0.001143   1.000   0.000077   0.000001
        671    17  -76.010454  -76.011604    0.001149   1.000   0.000077   0.000001
        672    16  -76.010438  -76.011587    0.001149   1.000   0.000077   0.000001
        673    16  -76.010423  -76.011564    0.001141   1.000   0.000077   0.000001
        674    17  -76.010410  -76.011536    0.001126   1.000   0.000077   0.000001
        675    17  -76.010399  -76.011503    0.001105   1.000   0.000077   0.000001
        676    16  -76.010391  -76.011469    0.001078   1.000   0.000077   0.000001
        677    16  -76.010386  -76.011434    0.001048   1.000   0.000077   0.000001
        678    17  -76.010384  -76.011399    0.001015   1.000   0.000077   0.000001
        679    17  -76.010386  -76.011367    0.000981   1.000   0.000077   0.000001
        680    16  -76.010391  -76.011338    0.000947   1.000   0.000077   0.000001
        681    16  -76.010398  -76.011313    0.000915   1.000   0.000076   0.000001
        682    17  -76.010406  -76.011293    0.000886   1.000   0.000076   0.000001
        683    17  -76.010416  -76.011278    0.000862   1.000   0.000076   0.000001
        684    16  -76.010426  -76.011268    0.000842   1.000   0.000076   0.000001
        685    16  -76.010436  -76.011264    0.000828   1.000   0.000076   0.000001
        686    17  -76.010445  -76.011264    0.000819   1.000   0.000076   0.000001
        687    17  -76.010453  -76.011268    0.000815   1.000   0.000076   0.000001
        688    16  -76.010460  -76.011276    0.000816   1.000   0.000076   0.000001
        689    16  -76.010465  -76.011287    0.000822   1.000   0.000076   0.000001
        690    17  -76.010469  -76.011300    0.000831   1.000   0.000076   0.000001
        691    17  -76.010471  -76.011314    0.000843   1.000   0.000076   0.000001
        692    16  -76.010472  -76.011329    0.000858   1.000   0.000076   0.000001
        693    16  -76.010471  -76.011345    0.000874   1.000   0.000076   0.000001
        694    17  -76.010742  -76.011360    0.000619   1.000   0.000073   0.000004
        695    17  -76.010780  -76.011421    0.000641   1.000   0.000072   0.000004
        696    17  -76.010783  -76.011473    0.000690   1.000   0.000071   0.000005
        697    16  -76.010780  -76.011510    0.000731   1.000   0.000071   0.000006
        698    16  -76.010778  -76.011533    0.000755   1.000   0.000071   0.000006
        699    16  -76.010781  -76.011542    0.000760   1.000   0.000070   0.000006
        700    16  -76.010789  -76.011542    0.000752   1.000   0.000070   0.000006
        701    17  -76.010799  -76.011536    0.000736   1.000   0.000070   0.000006
        702    16  -76.010809  -76.011527    0.000718   1.000   0.000070   0.000005
        703    17  -76.010790  -76.011537    0.000748   1.000   0.000070   0.000004
        704    17  -76.010758  -76.011536    0.000778   1.000   0.000069   0.000005
        705    16  -76.010665  -76.011591    0.000927   1.000   0.000069   0.000005
        706    16  -76.010571  -76.011618    0.001046   1.000   0.000069   0.000006
        707    16  -76.010506  -76.011627    0.001120   1.000   0.000069   0.000006
        708    17  -76.010459  -76.011638    0.001179   1.000   0.000070   0.000006
        709    17  -76.010418  -76.011649    0.001230   1.000   0.000070   0.000006
        710    15  -76.010378  -76.011655    0.001277   1.000   0.000070   0.000005
        711    16  -76.010337  -76.011651    0.001315   1.000   0.000070   0.000005
        712    16  -76.010298  -76.011635    0.001337   1.000   0.000070   0.000004
        713    17  -76.010265  -76.011603    0.001338   1.000   0.000070   0.000003
        714    17  -76.010241  -76.011557    0.001316   1.000   0.000070   0.000003
        715    16  -76.010227  -76.011498    0.001272   1.000   0.000070   0.000003
        716    16  -76.010206  -76.011442    0.001236   1.000   0.000070   0.000003
        717    16  -76.010181  -76.011379    0.001198   1.000   0.000070   0.000003
        718    17  -76.010187  -76.011289    0.001102   1.000   0.000070   0.000003
        719    17  -76.010211  -76.011207    0.000996   1.000   0.000069   0.000003
        720    16  -76.010243  -76.011138    0.000895   1.000   0.000069   0.000003
        721    16  -76.010259  -76.011103    0.000844   1.000   0.000069   0.000005
        722    16  -76.010235  -76.011122    0.000887   1.000   0.000069   0.000005
        723    17  -76.010243  -76.011126    0.000883   1.000   0.000069   0.000006
        724    17  -76.010271  -76.011204    0.000933   1.000   0.000068   0.000006
        725    16  -76.010447  -76.011283    0.000835   1.000   0.000066   0.000007
        726    17  -76.010727  -76.011394    0.000667   1.000   0.000062   0.000007
        727    17  -76.010734  -76.011535    0.000801   1.000   0.000062   0.000007
        728    16  -76.010622  -76.011644    0.001022   1.000   0.000062   0.000006
        729    16  -76.010480  -76.011717    0.001237   1.000   0.000062   0.000005
        730    16  -76.010373  -76.011751    0.001378   1.000   0.000062   0.000004
        731    16  -76.010319  -76.011752    0.001433   1.000   0.000061   0.000004
        732    17  -76.010307  -76.011730    0.001424   1.000   0.000061   0.000004
        733    16  -76.010257  -76.011755    0.001498   1.000   0.000061   0.000006
        734    17  -76.010165  -76.011806    0.001641   1.000   0.000062   0.000004
        735    17  -76.010148  -76.011757    0.001609   1.000   0.000062   0.000004
        736    16  -76.010163  -76.011696    0.001533   1.000   0.000062   0.000004
        737    16  -76.010179  -76.011638    0.001459   1.000   0.000061   0.000004
        738    16  -76.010187  -76.011588    0.001401   1.000   0.000060   0.000004
        739    17  -76.010191  -76.011543    0.001352   1.000   0.000060   0.000004
        740    17  -76.010199  -76.011501    0.001302   1.000   0.000060   0.000003
        741    16  -76.010212  -76.011460    0.001248   1.000   0.000060   0.000003
        742    16  -76.010228  -76.011419    0.001191   1.000   0.000060   0.000003
        743    16  -76.010240  -76.011379    0.001139   1.000   0.000060   0.000002
        744    17  -76.010245  -76.011340    0.001095   1.000   0.000060   0.000002
        745    17  -76.010242  -76.011303    0.001061   1.000   0.000060   0.000002
        746    16  -76.010232  -76.011268    0.001036   1.000   0.000060   0.000002
        747    16  -76.010218  -76.011235    0.001017   1.000   0.000060   0.000002
        748    17  -76.010203  -76.011204    0.001001   1.000   0.000060   0.000002
        749    16  -76.010190  -76.011176    0.000986   1.000   0.000060   0.000002
        750    17  -76.010180  -76.011151    0.000971   1.000   0.000060   0.000002
        751    17  -76.010174  -76.011131    0.000957   1.000   0.000060   0.000002
        752    16  -76.010171  -76.011114    0.000943   1.000   0.000060   0.000002
        753    16  -76.010171  -76.011102    0.000931   1.000   0.000060   0.000002
        754    17  -76.010175  -76.011095    0.000919   1.000   0.000060   0.000002
        755    17  -76.010182  -76.011091    0.000909   1.000   0.000060   0.000002
        756    16  -76.010193  -76.011092    0.000899   1.000   0.000060   0.000002
        757    16  -76.010206  -76.011095    0.000889   1.000   0.000060   0.000002
        758    17  -76.010222  -76.011102    0.000880   1.000   0.000060   0.000002
        759    17  -76.010240  -76.011112    0.000872   1.000   0.000060   0.000002
        760    16  -76.010260  -76.011124    0.000865   1.000   0.000060   0.000002
        761    16  -76.010279  -76.011139    0.000860   1.000   0.000060   0.000002
        762    17  -76.010298  -76.011156    0.000858   1.000   0.000060   0.000002
        763    17  -76.010315  -76.011175    0.000860   1.000   0.000060   0.000001
        764    16  -76.010329  -76.011196    0.000867   1.000   0.000060   0.000001
        765    17  -76.010339  -76.011219    0.000880   1.000   0.000060   0.000001
        766    16  -76.010345  -76.011242    0.000897   1.000   0.000060   0.000001
        767    17  -76.010346  -76.011266    0.000920   1.000   0.000060   0.000001
        768    17  -76.010342  -76.011291    0.000949   1.000   0.000060   0.000001
        769    16  -76.010334  -76.011314    0.000981   1.000   0.000060   0.000001
        770    16  -76.010321  -76.011336    0.001016   1.000   0.000060   0.000001
        771    17  -76.010305  -76.011356    0.001052   1.000   0.000060   0.000001
        772    17  -76.010286  -76.011374    0.001088   1.000   0.000060   0.000001
        773    16  -76.010265  -76.011387    0.001122   1.000   0.000060   0.000001
        774    16  -76.010244  -76.011397    0.001153   1.000   0.000060   0.000001
        775    17  -76.010223  -76.011401    0.001178   1.000   0.000060   0.000001
        776    17  -76.010203  -76.011402    0.001198   1.000   0.000060   0.000001
        777    16  -76.010186  -76.011397    0.001211   1.000   0.000060   0.000001
[...]
       7186    17  -76.053682  -76.053571    0.000111  12.857   0.000000   0.000001
       7187    16  -76.053681  -76.053571    0.000110  12.857   0.000000   0.000001
       7188    16  -76.053680  -76.053569    0.000111  12.857   0.000000   0.000001
       7189    16  -76.053680  -76.053565    0.000114  12.857   0.000000   0.000001
       7190    17  -76.053680  -76.053561    0.000118  12.857   0.000000   0.000001
       7191    17  -76.053680  -76.053557    0.000123  12.857   0.000000   0.000001
       7192    16  -76.053680  -76.053552    0.000127  12.857   0.000000   0.000001
       7193    16  -76.053680  -76.053549    0.000131  12.857   0.000000   0.000001
       7194    16  -76.053680  -76.053546    0.000134  12.857   0.000000   0.000001
       7195    17  -76.053680  -76.053544    0.000136  12.857   0.000000   0.000001
       7196    17  -76.053680  -76.053544    0.000137  12.857   0.000000   0.000001
       7197    16  -76.053681  -76.053544    0.000136  12.857   0.000000   0.000001
       7198    15  -76.053681  -76.053546    0.000135  12.857   0.000000   0.000001
       7199    16  -76.053681  -76.053549    0.000132  12.857   0.000000   0.000001
       7200    17  -76.053681  -76.053552    0.000129  12.857   0.000000   0.000001
       7201    17  -76.053682  -76.053556    0.000126  12.857   0.000000   0.000001
       7202    16  -76.053682  -76.053560    0.000122  12.857   0.000000   0.000001
       7203    16  -76.053682  -76.053565    0.000116  12.857   0.000000   0.000001
       7204    17  -76.053682  -76.053569    0.000113  12.857   0.000000   0.000001
       7205    16  -76.053682  -76.053573    0.000110  12.857   0.000000   0.000001
       7206    17  -76.053682  -76.053576    0.000107  12.857   0.000000   0.000001
       7207    17  -76.053683  -76.053579    0.000104  12.857   0.000000   0.000001
       7208    16  -76.053683  -76.053583    0.000100  12.857   0.000000   0.000001
       7209    16  -76.053683  -76.053586    0.000097  12.857   0.000000   0.000001

        ==> Orbital Optimization <==

            Orbital Optimization did not converge in  20 iterations 
            Total energy change: -1.675431e-09
            Final gradient norm: 8.949606e-06

       7210    17  -76.053671  -76.053588    0.000083  12.857   0.000001   0.000005
       7211    16  -76.053679  -76.053509    0.000170  12.857   0.000001   0.000004
       7212    17  -76.053692  -76.053491    0.000201  12.857   0.000001   0.000003
       7213    17  -76.053699  -76.053522    0.000177  12.857   0.000000   0.000003
       7214    16  -76.053696  -76.053566    0.000130  12.857   0.000000   0.000003
       7215    16  -76.053688  -76.053595    0.000093  12.857   0.000000   0.000002
       7216    16  -76.053681  -76.053603    0.000078  12.857   0.000000   0.000002
       7217    17  -76.053678  -76.053598    0.000080  12.857   0.000000   0.000002
       7218    17  -76.053678  -76.053591    0.000088  12.857   0.000000   0.000002
       7219    15  -76.053681  -76.053587    0.000094  12.857   0.000000   0.000002
       7220    15  -76.053684  -76.053590    0.000094  12.857   0.000000   0.000002
       7221    16  -76.053687  -76.053597    0.000090  12.857   0.000000   0.000002
       7222    16  -76.053688  -76.053605    0.000083  12.857   0.000000   0.000002
       7223    17  -76.053688  -76.053612    0.000076  12.857   0.000000   0.000002
       7224    17  -76.053687  -76.053617    0.000070  12.857   0.000000   0.000002
       7225    15  -76.053685  -76.053620    0.000065  12.857   0.000000   0.000002
       7226    16  -76.053683  -76.053626    0.000057  12.857   0.000000   0.000002
       7227    16  -76.053681  -76.053626    0.000055  12.857   0.000000   0.000002
       7228    16  -76.053679  -76.053622    0.000057  12.857   0.000000   0.000002
       7229    17  -76.053677  -76.053616    0.000061  12.857   0.000000   0.000002
       7230    17  -76.053676  -76.053607    0.000069  12.857   0.000000   0.000002
       7231    16  -76.053675  -76.053597    0.000078  12.857   0.000000   0.000002
       7232    16  -76.053675  -76.053586    0.000088  12.857   0.000000   0.000002
       7233    16  -76.053674  -76.053577    0.000098  12.857   0.000000   0.000002
       7234    17  -76.053674  -76.053571    0.000103  12.857   0.000000   0.000001
       7235    17  -76.053674  -76.053565    0.000109  12.857   0.000000   0.000001
       7236    16  -76.053674  -76.053559    0.000114  12.857   0.000000   0.000001
       7237    16  -76.053674  -76.053555    0.000119  12.857   0.000000   0.000001
       7238    16  -76.053675  -76.053553    0.000122  12.857   0.000000   0.000001
       7239    17  -76.053676  -76.053553    0.000123  12.857   0.000000   0.000001
       7240    17  -76.053677  -76.053556    0.000121  12.857   0.000000   0.000001
       7241    17  -76.053678  -76.053559    0.000119  12.857   0.000000   0.000001
       7242    17  -76.053679  -76.053563    0.000116  12.857   0.000000   0.000001
       7243    17  -76.053680  -76.053566    0.000114  12.857   0.000000   0.000001
       7244    16  -76.053681  -76.053567    0.000113  12.857   0.000000   0.000001
       7245    16  -76.053681  -76.053568    0.000113  12.857   0.000000   0.000001
       7246    17  -76.053681  -76.053567    0.000115  12.857   0.000000   0.000001
       7247    17  -76.053681  -76.053564    0.000117  12.857   0.000000   0.000001
       7248    16  -76.053681  -76.053560    0.000121  12.857   0.000000   0.000001
       7249    16  -76.053681  -76.053555    0.000126  12.857   0.000000   0.000001
       7250    17  -76.053681  -76.053548    0.000133  12.857   0.000000   0.000001
       7251    17  -76.053681  -76.053541    0.000139  12.857   0.000000   0.000001
       7252    16  -76.053681  -76.053535    0.000146  12.857   0.000000   0.000001
       7253    16  -76.053681  -76.053532    0.000149  12.857   0.000000   0.000001
       7254    16  -76.053681  -76.053529    0.000153  12.857   0.000000   0.000001
       7255    17  -76.053682  -76.053525    0.000156  12.857   0.000000   0.000001
       7256    17  -76.053682  -76.053524    0.000158  12.857   0.000000   0.000001
       7257    16  -76.053683  -76.053525    0.000158  12.857   0.000000   0.000001
       7258    15  -76.053683  -76.053528    0.000156  12.857   0.000000   0.000001
       7259    15  -76.053684  -76.053533    0.000151  12.857   0.000000   0.000001
       7260    17  -76.053684  -76.053541    0.000143  12.857   0.000000   0.000001
       7261    17  -76.053685  -76.053550    0.000135  12.857   0.000000   0.000001
       7262    15  -76.053685  -76.053558    0.000126  12.857   0.000000   0.000001
       7263    16  -76.053684  -76.053567    0.000118  12.857   0.000000   0.000001
       7264    16  -76.053684  -76.053574    0.000111  12.857   0.000000   0.000001
       7265    17  -76.053684  -76.053579    0.000104  12.857   0.000000   0.000001
       7266    17  -76.053683  -76.053584    0.000100  12.857   0.000000   0.000001

        ==> Orbital Optimization <==

            Orbital Optimization did not converge in  20 iterations 
            Total energy change: -8.686243e-10
            Final gradient norm: 5.077419e-06

       7267    16  -76.053691  -76.053592    0.000099  12.857   0.000001   0.000004
       7268    16  -76.053684  -76.053660    0.000024  12.857   0.000001   0.000003
       7269    16  -76.053674  -76.053687    0.000013  12.857   0.000001   0.000003
       7270    17  -76.053668  -76.053672    0.000003  12.857   0.000000   0.000002
       7271    17  -76.053670  -76.053641    0.000029  12.857   0.000000   0.000002
       7272    16  -76.053676  -76.053620    0.000056  12.857   0.000000   0.000002
       7273    16  -76.053681  -76.053617    0.000064  12.857   0.000000   0.000001
       7274    16  -76.053683  -76.053628    0.000056  12.857   0.000000   0.000001
       7275    17  -76.053683  -76.053641    0.000041  12.857   0.000000   0.000001
       7276    17  -76.053680  -76.053650    0.000030  12.857   0.000000   0.000002
       7277    16  -76.053677  -76.053652    0.000025  12.857   0.000000   0.000002
       7278    16  -76.053675  -76.053648    0.000027  12.857   0.000000   0.000002
       7279    16  -76.053673  -76.053638    0.000035  12.857   0.000000   0.000002
       7280    17  -76.053672  -76.053626    0.000046  12.857   0.000000   0.000002
       7281    17  -76.053672  -76.053613    0.000060  12.857   0.000000   0.000002
       7282    16  -76.053673  -76.053599    0.000074  12.857   0.000000   0.000002
       7283    16  -76.053674  -76.053585    0.000090  12.857   0.000000   0.000002
       7284    16  -76.053675  -76.053571    0.000104  12.857   0.000000   0.000002
       7285    17  -76.053676  -76.053558    0.000118  12.857   0.000000   0.000002
       7286    17  -76.053677  -76.053546    0.000131  12.857   0.000000   0.000001
       7287    17  -76.053677  -76.053538    0.000140  12.857   0.000000   0.000001
       7288    17  -76.053677  -76.053527    0.000150  12.857   0.000000   0.000001
       7289    17  -76.053678  -76.053518    0.000160  12.857   0.000000   0.000001
       7290    17  -76.053678  -76.053510    0.000168  12.857   0.000000   0.000001
       7291    16  -76.053678  -76.053506    0.000172  12.857   0.000000   0.000001
       7292    16  -76.053678  -76.053500    0.000178  12.857   0.000000   0.000001
       7293    17  -76.053679  -76.053495    0.000183  12.857   0.000000   0.000001
       7294    17  -76.053679  -76.053494    0.000186  12.857   0.000000   0.000001
       7295    16  -76.053680  -76.053494    0.000186  12.857   0.000000   0.000001
       7296    16  -76.053681  -76.053497    0.000184  12.857   0.000000   0.000001
       7297    17  -76.053681  -76.053500    0.000181  12.857   0.000000   0.000001
       7298    17  -76.053682  -76.053505    0.000176  12.857   0.000000   0.000001
       7299    16  -76.053682  -76.053511    0.000171  12.857   0.000000   0.000001
       7300    16  -76.053682  -76.053517    0.000165  12.857   0.000000   0.000001
       7301    17  -76.053683  -76.053523    0.000160  12.857   0.000000   0.000001
       7302    17  -76.053683  -76.053529    0.000153  12.857   0.000000   0.000001
       7303    16  -76.053683  -76.053536    0.000148  12.857   0.000000   0.000001
       7304    16  -76.053684  -76.053542    0.000142  12.857   0.000000   0.000001
       7305    17  -76.053684  -76.053548    0.000136  12.857   0.000000   0.000001
       7306    17  -76.053684  -76.053554    0.000130  12.857   0.000000   0.000001
       7307    16  -76.053684  -76.053560    0.000124  12.857   0.000000   0.000001
       7308    16  -76.053684  -76.053564    0.000120  12.857   0.000000   0.000001
       7309    17  -76.053684  -76.053568    0.000116  12.857   0.000000   0.000001
       7310    16  -76.053685  -76.053573    0.000112  12.857   0.000000   0.000001
       7311    17  -76.053685  -76.053577    0.000107  12.857   0.000000   0.000001
       7312    17  -76.053685  -76.053581    0.000104  12.857   0.000000   0.000001
       7313    16  -76.053685  -76.053582    0.000102  12.857   0.000000   0.000001
       7314    16  -76.053684  -76.053584    0.000101  12.857   0.000000   0.000001
       7315    16  -76.053684  -76.053585    0.000099  12.857   0.000000   0.000001

        ==> Orbital Optimization <==

            Orbital Optimization did not converge in  20 iterations 
            Total energy change: -1.934524e-10
            Final gradient norm: 3.508610e-06

       7316    17  -76.053687  -76.053581    0.000107  12.857   0.000000   0.000002
       7317    17  -76.053685  -76.053601    0.000084  12.857   0.000000   0.000001
       7318    15  -76.053681  -76.053605    0.000076  12.857   0.000000   0.000001
       7319    16  -76.053679  -76.053597    0.000082  12.857   0.000000   0.000001
       7320    17  -76.053679  -76.053585    0.000094  12.857   0.000000   0.000001

        ==> Orbital Optimization <==

            Orbital Optimization did not converge in  20 iterations 
            Total energy change: -5.158256e-10
            Final gradient norm: 1.580506e-06

       7321    17  -76.053683  -76.053574    0.000108  12.857   0.000001   0.000005
       7322    16  -76.053683  -76.053583    0.000100  12.857   0.000001   0.000003
       7323    16  -76.053681  -76.053587    0.000093  12.857   0.000001   0.000003
       7324    17  -76.053678  -76.053592    0.000086  12.857   0.000000   0.000003
       7325    17  -76.053676  -76.053586    0.000090  12.857   0.000001   0.000002
       7326    16  -76.053676  -76.053578    0.000098  12.857   0.000001   0.000002
       7327    16  -76.053677  -76.053576    0.000102  12.857   0.000001   0.000002
       7328    17  -76.053679  -76.053580    0.000099  12.857   0.000000   0.000002
       7329    17  -76.053679  -76.053587    0.000092  12.857   0.000000   0.000002
       7330    16  -76.053678  -76.053590    0.000088  12.857   0.000000   0.000002
       7331    16  -76.053678  -76.053593    0.000086  12.857   0.000000   0.000002
       7332    17  -76.053678  -76.053594    0.000085  12.857   0.000000   0.000002
       7333    17  -76.053679  -76.053595    0.000084  12.857   0.000000   0.000002
       7334    16  -76.053679  -76.053596    0.000083  12.857   0.000000   0.000002
       7335    16  -76.053680  -76.053597    0.000082  12.857   0.000000   0.000002
       7336    17  -76.053680  -76.053598    0.000082  12.857   0.000000   0.000002
       7337    17  -76.053681  -76.053598    0.000084  12.857   0.000000   0.000002
       7338    17  -76.053681  -76.053599    0.000082  12.857   0.000000   0.000002
       7339    17  -76.053681  -76.053595    0.000085  12.857   0.000000   0.000002
       7340    16  -76.053680  -76.053590    0.000091  12.857   0.000000   0.000002
       7341    16  -76.053680  -76.053583    0.000097  12.857   0.000000   0.000002
       7342    17  -76.053679  -76.053578    0.000101  12.857   0.000000   0.000002
       7343    15  -76.053679  -76.053573    0.000106  12.857   0.000000   0.000002
       7344    17  -76.053678  -76.053568    0.000111  12.857   0.000000   0.000001
       7345    17  -76.053678  -76.053563    0.000115  12.857   0.000000   0.000001
       7346    16  -76.053678  -76.053559    0.000119  12.857   0.000000   0.000001
       7347    16  -76.053678  -76.053556    0.000121  12.857   0.000000   0.000001
       7348    16  -76.053678  -76.053556    0.000122  12.857   0.000000   0.000001
       7349    17  -76.053678  -76.053557    0.000120  12.857   0.000000   0.000001
       7350    17  -76.053678  -76.053560    0.000118  12.857   0.000000   0.000001
       7351    16  -76.053678  -76.053564    0.000114  12.857   0.000000   0.000001
       7352    16  -76.053678  -76.053569    0.000110  12.857   0.000000   0.000001
       7353    16  -76.053679  -76.053573    0.000106  12.857   0.000000   0.000001
       7354    17  -76.053679  -76.053576    0.000103  12.857   0.000000   0.000001
       7355    17  -76.053679  -76.053578    0.000101  12.857   0.000000   0.000001
       7356    16  -76.053679  -76.053578    0.000101  12.857   0.000000   0.000001
       7357    16  -76.053679  -76.053577    0.000102  12.857   0.000000   0.000001
       7358    15  -76.053679  -76.053574    0.000105  12.857   0.000000   0.000001
       7359    17  -76.053679  -76.053570    0.000109  12.857   0.000000   0.000001
       7360    17  -76.053679  -76.053564    0.000115  12.857   0.000000   0.000001
       7361    16  -76.053679  -76.053557    0.000122  12.857   0.000000   0.000001
       7362    17  -76.053680  -76.053551    0.000129  12.857   0.000000   0.000001
       7363    16  -76.053680  -76.053544    0.000136  12.857   0.000000   0.000001
       7364    17  -76.053680  -76.053537    0.000143  12.857   0.000000   0.000001
       7365    17  -76.053680  -76.053530    0.000150  12.857   0.000000   0.000001
       7366    16  -76.053681  -76.053525    0.000155  12.857   0.000000   0.000001
       7367    16  -76.053681  -76.053522    0.000159  12.857   0.000000   0.000001
       7368    17  -76.053681  -76.053519    0.000162  12.857   0.000000   0.000001
       7369    16  -76.053682  -76.053518    0.000164  12.857   0.000000   0.000001
       7370    17  -76.053682  -76.053518    0.000164  12.857   0.000000   0.000001
       7371    17  -76.053682  -76.053519    0.000164  12.857   0.000000   0.000001
       7372    16  -76.053683  -76.053520    0.000162  12.857   0.000000   0.000001
       7373    16  -76.053683  -76.053522    0.000160  12.857   0.000000   0.000001
       7374    17  -76.053683  -76.053525    0.000158  12.857   0.000000   0.000001
       7375    16  -76.053683  -76.053527    0.000156  12.857   0.000000   0.000001
       7376    17  -76.053683  -76.053529    0.000153  12.857   0.000000   0.000001
       7377    17  -76.053683  -76.053532    0.000151  12.857   0.000000   0.000001
       7378    15  -76.053683  -76.053534    0.000149  12.857   0.000000   0.000001
       7379    15  -76.053683  -76.053537    0.000147  12.857   0.000000   0.000001
       7380    17  -76.053683  -76.053539    0.000144  12.857   0.000000   0.000001
       7381    16  -76.053683  -76.053541    0.000142  12.857   0.000000   0.000001
       7382    17  -76.053683  -76.053543    0.000140  12.857   0.000000   0.000001
       7383    17  -76.053684  -76.053546    0.000137  12.857   0.000000   0.000001
       7384    16  -76.053684  -76.053549    0.000135  12.857   0.000000   0.000001
       7385    16  -76.053684  -76.053551    0.000133  12.857   0.000000   0.000001
       7386    16  -76.053684  -76.053554    0.000130  12.857   0.000000   0.000001
       7387    17  -76.053684  -76.053557    0.000127  12.857   0.000000   0.000001
       7388    17  -76.053684  -76.053560    0.000124  12.857   0.000000   0.000001
       7389    16  -76.053684  -76.053563    0.000121  12.857   0.000000   0.000001
       7390    16  -76.053684  -76.053566    0.000118  12.857   0.000000   0.000001
       7391    17  -76.053684  -76.053569    0.000115  12.857   0.000000   0.000001
       7392    16  -76.053684  -76.053572    0.000112  12.857   0.000000   0.000001
       7393    17  -76.053684  -76.053575    0.000109  12.857   0.000000   0.000001
       7394    17  -76.053684  -76.053578    0.000106  12.857   0.000000   0.000001
       7395    16  -76.053683  -76.053580    0.000103  12.857   0.000000   0.000001
       7396    16  -76.053683  -76.053582    0.000101  12.857   0.000000   0.000001
       7397    16  -76.053683  -76.053584    0.000099  12.857   0.000000   0.000001

        ==> Orbital Optimization <==

            Orbital Optimization converged in  18 iterations 
            Total energy change: -7.728858e-10
            Final gradient norm: 9.613060e-07


      v2RDM-DOCI iterations converged!

    * v2RDM-DOCI total energy:            -76.053683072886


 # Natural Orbital Occupation Numbers (spin free) #
 Irrep: 1
      1:  1.9999923
      2:  1.9925339
      3:  1.9756713
      4:  1.9756690
      5:  1.9925339
      6:  0.0238034
      7:  0.0238014
      8:  0.0011650
      9:  0.0011644
     10:  0.0066834
     11:  0.0066852
     12:  0.0001481
     13:  0.0001487


  ==> Iteration count <==

      Microiterations:                  121888
      Macroiterations:                    7398
      Orbital optimization steps:           13

  ==> Wall time <==

      Microiterations:                    3.01 s
      Macroiterations:                   18.33 s
      Orbital optimization:               1.36 s
      Total:                             23.10 s

    SCF total energy..................................................PASSED
    v2RDM-DOCI total energy...........................................PASSED

    Psi4 stopped on: Friday, 10 July 2020 09:11PM
    Psi4 wall time for execution: 0:00:23.50

*** Psi4 exiting successfully. Buy a developer a beer!
