
    -----------------------------------------------------------------------
          Psi4: An Open-Source Ab Initio Electronic Structure Package
                               Psi4 1.4a2.dev397 

                         Git: Rev {master} b3df9b2 dirty


    R. M. Parrish, L. A. Burns, D. G. A. Smith, A. C. Simmonett,
    A. E. DePrince III, E. G. Hohenstein, U. Bozkaya, A. Yu. Sokolov,
    R. Di Remigio, R. M. Richard, J. F. Gonthier, A. M. James,
    H. R. McAlexander, A. Kumar, M. Saitow, X. Wang, B. P. Pritchard,
    P. Verma, H. F. Schaefer III, K. Patkowski, R. A. King, E. F. Valeev,
    F. A. Evangelista, J. M. Turney, T. D. Crawford, and C. D. Sherrill,
    J. Chem. Theory Comput. 13(7) pp 3185--3197 (2017).
    (doi: 10.1021/acs.jctc.7b00174)


                         Additional Contributions by
    P. Kraus, H. Kruse, M. H. Lechner, M. C. Schieber, R. A. Shaw,
    A. Alenaizan, R. Galvelis, Z. L. Glick, S. Lehtola, and J. P. Misiewicz

    -----------------------------------------------------------------------


    Psi4 started on: Thursday, 16 July 2020 09:22AM

    Process ID: 90541
    Host:       illegally-used-at.fsu
    PSIDATADIR: /Users/deprince/edeprince3/psi4/install/master/share/psi4
    Memory:     500.0 MiB
    Threads:    1
    
  ==> Input File <==

--------------------------------------------------------------------------
#! H3 / cc-pvdz / D+D3 vs full CI, scf_type = PK

# job description
print('        H3 / cc-pvdz / D+D3 vs full CI, scf_type = PK')

sys.path.insert(0, '../../..')
import hilbert

molecule h3 {
0 2
H
H 1 1.0
H 1 2.0 2 90.0
}

set {
  guess sad
  basis sto-3g
  scf_type pk
  d_convergence      1e-10
  guess sad
  maxiter 500
  reference rohf

}

set hilbert {
  positivity d
  constrain_d3 true
  r_convergence  1e-5
  e_convergence  1e-6
  maxiter 20000
  optimize_orbitals false
  semicanonicalize_orbitals false
}

activate(h3)
v2rdm = energy('v2rdm-casscf')
fci   = energy('fci')

compare_values(v2rdm, fci, 5, "v2RDM vs full CI") # TEST

--------------------------------------------------------------------------

Scratch directory: /tmp/

*** tstart() called on illegally-used-at.fsu
*** at Thu Jul 16 09:22:24 2020

   => Loading Basis Set <=

    Name: STO-3G
    Role: ORBITAL
    Keyword: BASIS
    atoms 1-3 entry H          line    19 file /Users/deprince/edeprince3/psi4/install/master/share/psi4/basis/sto-3g.gbs 


         ---------------------------------------------------------
                                   SCF
               by Justin Turney, Rob Parrish, Andy Simmonett
                          and Daniel G. A. Smith
                             ROHF Reference
                        1 Threads,    500 MiB Core
         ---------------------------------------------------------

  ==> Geometry <==

    Molecular point group: cs
    Full point group: Cs

    Geometry (in Angstrom), charge = 0, multiplicity = 2:

       Center              X                  Y                   Z               Mass       
    ------------   -----------------  -----------------  -----------------  -----------------
         H            0.666666666667     0.333333333333     0.000000000000     1.007825032230
         H            0.666666666667    -0.666666666667     0.000000000000     1.007825032230
         H           -1.333333333333     0.333333333333     0.000000000000     1.007825032230

  Running in cs symmetry.

  Rotational constants: A =     35.98571  B =      5.83115  C =      5.01802 [cm^-1]
  Rotational constants: A = 1078824.40778  B = 174813.35841  C = 150436.53194 [MHz]
  Nuclear repulsion =    1.030421059045370

  Charge       = 0
  Multiplicity = 2
  Electrons    = 3
  Nalpha       = 2
  Nbeta        = 1

  ==> Algorithm <==

  SCF Algorithm Type is PK.
  DIIS enabled.
  MOM disabled.
  Fractional occupation disabled.
  Guess Type is SAD.
  Energy threshold   = 1.00e-08
  Density threshold  = 1.00e-10
  Integral threshold = 0.00e+00

  ==> Primary Basis <==

  Basis Set: STO-3G
    Blend: STO-3G
    Number of shells: 3
    Number of basis function: 3
    Number of Cartesian functions: 3
    Spherical Harmonics?: true
    Max angular momentum: 0

  ==> Pre-Iterations <==

   -------------------------------------------------------
    Irrep   Nso     Nmo     Nalpha   Nbeta   Ndocc  Nsocc
   -------------------------------------------------------
     A'         3       3       0       0       0       0
     A"         0       0       0       0       0       0
   -------------------------------------------------------
    Total       3       3       2       1       1       1
   -------------------------------------------------------

  ==> Integral Setup <==

  Using in-core PK algorithm.
   Calculation information:
      Number of atoms:                   3
      Number of AO shells:               3
      Number of primitives:              9
      Number of atomic orbitals:         3
      Number of basis functions:         3

      Integral cutoff                 1.00e-12
      Number of threads:                 1

  Performing in-core PK
  Using 42 doubles for integral storage.
  We computed 21 shell quartets total.
  Whereas there are 21 unique shell quartets.

  ==> DiskJK: Disk-Based J/K Matrices <==

    J tasked:                  Yes
    K tasked:                  Yes
    wK tasked:                  No
    Memory [MiB]:              375
    Schwarz Cutoff:          1E-12

    OpenMP threads:              1

  Minimum eigenvalue in the overlap matrix is 5.0189908248E-01.
  Reciprocal condition number of the overlap matrix is 3.2725092515E-01.
    Using symmetric orthogonalization.
  SCF Guess: Superposition of Atomic Densities via on-the-fly atomic UHF.

  ==> Iterations <==

                        Total Energy        Delta E     RMS |[F,P]|

   @ROHF iter SAD:    -0.92255934096179   -9.22559e-01   0.00000e+00 
   @ROHF iter   1:    -1.51845795287510   -5.95899e-01   2.25239e-02 DIIS
   @ROHF iter   2:    -1.52659196685382   -8.13401e-03   4.53047e-03 DIIS
   @ROHF iter   3:    -1.52692043982069   -3.28473e-04   3.84157e-04 DIIS
   @ROHF iter   4:    -1.52692280842974   -2.36861e-06   2.18042e-05 DIIS
   @ROHF iter   5:    -1.52692281533310   -6.90336e-09   4.47658e-07 DIIS
   @ROHF iter   6:    -1.52692281533632   -3.22453e-12   2.17148e-08 DIIS
   @ROHF iter   7:    -1.52692281533633   -9.76996e-15   5.08014e-11 DIIS
  Energy and wave function converged.


  ==> Post-Iterations <==

    Orbital Energies [Eh]
    ---------------------

    Doubly Occupied:                                                      

       1Ap    -0.490236  

    Singly Occupied:                                                      

       2Ap    -0.064297  

    Virtual:                                                              

       3Ap     0.457501  

    Final Occupation by Irrep:
             Ap   App 
    DOCC [     1,    0 ]
    SOCC [     1,    0 ]

  @ROHF Final Energy:    -1.52692281533633

   => Energetics <=

    Nuclear Repulsion Energy =              1.0304210590453695
    One-Electron Energy =                  -3.6846887718165688
    Two-Electron Energy =                   1.1273448974348668
    Total Energy =                         -1.5269228153363326

Computation Completed


Properties will be evaluated at   0.000000,   0.000000,   0.000000 [a0]

Properties computed using the SCF density matrix

  Nuclear Dipole Moment: [e a0]
     X:     0.0000      Y:     0.0000      Z:     0.0000

  Electronic Dipole Moment: [e a0]
     X:     0.0228      Y:    -0.0018      Z:     0.0000

  Dipole Moment: [e a0]
     X:     0.0228      Y:    -0.0018      Z:     0.0000     Total:     0.0229

  Dipole Moment: [D]
     X:     0.0579      Y:    -0.0046      Z:     0.0000     Total:     0.0581


*** tstop() called on illegally-used-at.fsu at Thu Jul 16 09:22:25 2020
Module time:
	user time   =       0.22 seconds =       0.00 minutes
	system time =       0.01 seconds =       0.00 minutes
	total time  =          1 seconds =       0.02 minutes
Total time:
	user time   =       0.22 seconds =       0.00 minutes
	system time =       0.01 seconds =       0.00 minutes
	total time  =          1 seconds =       0.02 minutes
 MINTS: Wrapper to libmints.
   by Justin Turney

   Calculation information:
      Number of threads:                 1
      Number of atoms:                   3
      Number of AO shells:               3
      Number of SO shells:               3
      Number of primitives:              9
      Number of atomic orbitals:         3
      Number of basis functions:         3

      Number of irreps:                  2
      Integral cutoff                 0.00e+00
      Number of functions per irrep: [   3    0 ]

 OEINTS: Overlap, kinetic, potential, dipole, and quadrupole integrals
         stored in file 35.

      Computing two-electron integrals...done
      Computed 21 non-zero two-electron integrals.
        Stored in file 33.


Reading options from the HILBERT block
Calling plugin hilbert.so.




        ****************************************************
        *                                                  *
        *    v2RDM-CASSCF                                  *
        *                                                  *
        *    A variational 2-RDM-driven approach to the    *
        *    active space self-consistent field method     *
        *                                                  *
        ****************************************************


        The following papers should be cited when using v2RDM-CASSCF:

        J. Fosso-Tande, D. R. Nascimento, and A. E. DePrince III,
        Mol. Phys. 114, 423-430 (2015).

            URL: http://dx.doi.org/10.1080/00268976.2015.1078008

        J. Fosso-Tande, T.-S. Nguyen, G. Gidofalvi, and
        A. E. DePrince III, J. Chem. Theory Comput. accepted (2016).

            URL: http://dx.doi.org/10.1021/acs.jctc.6b00190



  ==> Convergence parameters <==

        r_convergence:                      1.000e-05
        e_convergence:                      1.000e-06
        cg_convergence:                     1.000e-09
        maxiter:                                20000
        cg_maxiter:                             10000

  ==> Active space details <==

        Number of frozen core orbitals:             0
        Number of restricted occupied orbitals:     0
        Number of active occupied orbitals:         1
        Number of active virtual orbitals:          2
        Number of restricted virtual orbitals:      0
        Number of frozen virtual orbitals:          0

        Irrep:             Ap, App 
 
        frozen_docc     [   0,   0 ]
        restricted_docc [   0,   0 ]
        active          [   3,   0 ]
        restricted_uocc [   0,   0 ]
        frozen_uocc     [   0,   0 ]

  ==> Orbital optimization parameters <==

        1-step algorithm:                    true
        g_convergence:                  1.000e-04
        e_convergence:                  1.000e-08
        maximum iterations:                     1
        frequency:                            500
        active-active rotations:            false
        exact diagonal Hessian:              true
        number of DIIS vectors:                 0
        print iteration info:               false

  ==> Memory requirements <==

        D2:                          0.00 mb
        D3:                          0.00 mb

        Total number of variables:            623
        Total number of constraints:          481
        Total memory requirements:        0.04 mb

    ==> Transform two-electron integrals <==

	Presorting SO-basis two-electron integrals.
	Sorting File: SO Ints (nn|nn) nbuckets = 1
	Transforming the one-electron integrals and constructing Fock matrices
	Starting first half-transformation.
	Sorting half-transformed integrals.
	First half integral transformation complete.
	Starting second half-transformation.
	Two-electron integral transformation complete.

        Time for integral transformation:     0.01 s

    Molecular point group: cs
    Full point group: Cs

    Geometry (in Angstrom), charge = 0, multiplicity = 2:

       Center              X                  Y                   Z               Mass       
    ------------   -----------------  -----------------  -----------------  -----------------
         H            0.666666666667     0.333333333333     0.000000000000     1.007825032230
         H            0.666666666667    -0.666666666667     0.000000000000     1.007825032230
         H           -1.333333333333     0.333333333333     0.000000000000     1.007825032230

  -AO BASIS SET INFORMATION:
    Name                   = STO-3G
    Blend                  = STO-3G
    Total number of shells = 3
    Number of primitives   = 9
    Number of AO           = 3
    Number of SO           = 3
    Maximum AM             = 0
    Spherical Harmonics    = TRUE

  -Contraction Scheme:
    Atom   Type   All Primitives // Shells:
   ------ ------ --------------------------
       1     H     3s // 1s 
       2     H     3s // 1s 
       3     H     3s // 1s 

  ==> AO Basis Functions <==

    [ STO-3G ]
    spherical
    ****
    H   1
    S   3 1.00
                         3.42525091           0.15432897
                         0.62391373           0.53532814
                         0.16885540           0.44463454
    ****
    H   2
    S   3 1.00
                         3.42525091           0.15432897
                         0.62391373           0.53532814
                         0.16885540           0.44463454
    ****
    H   3
    S   3 1.00
                         3.42525091           0.15432897
                         0.62391373           0.53532814
                         0.16885540           0.44463454
    ****


        Read integrals......done.


    reference energy:          -1.526922815336
    frozen core energy:         0.000000000000
    initial 2-RDM energy:      -0.159934720692

      oiter iiter        E(p)        E(d)      E gap)      mu     eps(p)     eps(d)
          0    20    3.688194   31.098223 2.741003e+01   1.000 3.20344e+01 4.50013e+01
          1    15   -0.425190  -28.690239 2.826505e+01   1.000 3.94971e+00 2.18598e+01
          2    16   -1.093556   -7.713881 6.620325e+00   1.000 3.20112e+00 3.71186e+00
          3    15   -0.829233   -5.373845 4.544612e+00   1.000 2.41036e+00 1.63938e+00
          4    14   -0.842708   -4.486055 3.643347e+00   1.000 1.84808e+00 8.23840e-01
          5    11   -1.112299   -3.727653 2.615353e+00   1.000 1.48544e+00 8.38394e-01
          6    14   -1.239328   -3.006511 1.767183e+00   1.000 1.52780e+00 4.25090e-01
          7    12   -1.254178   -2.126052 8.718740e-01   1.000 1.44104e+00 2.93960e-01
          8    14   -1.143758   -1.418523 2.747660e-01   1.000 1.05583e+00 3.60945e-01
          9    14   -1.065641   -1.161680 9.603900e-02   1.000 7.77716e-01 3.98939e-01
         10    11   -1.045407   -1.203177 1.577695e-01   1.000 6.02156e-01 3.03029e-01
         11    11   -1.077892   -1.182632 1.047400e-01   1.000 5.35730e-01 2.61444e-01
         12    11   -1.142644   -1.151116 8.471509e-03   1.000 4.81917e-01 2.40019e-01
         13    10   -1.206128   -1.097575 1.085535e-01   1.000 3.77190e-01 2.45559e-01
         14    10   -1.266984   -1.068063 1.989213e-01   1.000 3.05598e-01 2.30814e-01
         15    11   -1.325809   -1.092463 2.333456e-01   1.000 2.47288e-01 2.25951e-01
         16    10   -1.375738   -1.127650 2.480878e-01   1.000 1.99491e-01 2.21124e-01
         17     9   -1.407130   -1.171770 2.353605e-01   1.000 1.80242e-01 2.03790e-01
         18    11   -1.425536   -1.233453 1.920831e-01   1.000 1.92596e-01 1.71185e-01
         19    12   -1.438932   -1.309104 1.298279e-01   1.000 1.99920e-01 1.47612e-01
         20    12   -1.450457   -1.371599 7.885794e-02   1.000 1.88141e-01 1.31358e-01
         21    12   -1.453915   -1.411339 4.257598e-02   1.000 1.48839e-01 1.25032e-01
         22    10   -1.458881   -1.458677 2.043641e-04   1.000 1.21992e-01 1.18399e-01
         23    10   -1.464775   -1.466526 1.751584e-03   1.000 1.08937e-01 1.12733e-01
         24    11   -1.469744   -1.448953 2.079086e-02   1.000 1.06966e-01 1.06222e-01
         25    11   -1.473746   -1.420331 5.341488e-02   1.000 1.05037e-01 1.01690e-01
         26    10   -1.475077   -1.397473 7.760360e-02   1.000 9.09450e-02 9.92273e-02
         27     9   -1.477427   -1.383083 9.434433e-02   1.000 7.65764e-02 9.67919e-02
         28     9   -1.482314   -1.377344 1.049696e-01   1.000 6.39531e-02 9.36646e-02
         29     9   -1.489246   -1.376018 1.132278e-01   1.000 5.34374e-02 9.09726e-02
         30    10   -1.497791   -1.375784 1.220074e-01   1.000 4.54874e-02 8.91117e-02
         31     9   -1.507379   -1.374805 1.325742e-01   1.000 4.12023e-02 8.75852e-02
         32     9   -1.517157   -1.372738 1.444186e-01   1.000 4.07983e-02 8.58047e-02
         33     9   -1.526540   -1.370653 1.558867e-01   1.000 4.22688e-02 8.36898e-02
         34     9   -1.535167   -1.369852 1.653148e-01   1.000 4.33065e-02 8.15699e-02
         35     9   -1.542809   -1.371245 1.715640e-01   1.000 4.26861e-02 7.98187e-02
         36     9   -1.549057   -1.374964 1.740931e-01   1.000 4.00230e-02 7.84221e-02
         37    10   -1.553731   -1.381980 1.717506e-01   1.000 3.56042e-02 7.73068e-02
         38    11   -1.558153   -1.392315 1.658384e-01   1.000 2.91366e-02 7.59511e-02
         39    10   -1.557520   -1.401132 1.563880e-01   1.000 3.37945e-02 6.87808e-02
         40    11   -1.559012   -1.429400 1.296125e-01   1.000 5.55601e-02 5.30778e-02
         41    12   -1.561724   -1.487701 7.402269e-02   1.000 6.42419e-02 3.98280e-02
         42    13   -1.564437   -1.532546 3.189156e-02   1.000 6.27354e-02 3.33376e-02
         43    13   -1.566388   -1.560039 6.348315e-03   1.000 5.81329e-02 2.89994e-02
         44    13   -1.567170   -1.573873 6.702854e-03   1.000 5.38595e-02 2.46427e-02
         45    12   -1.567043   -1.579957 1.291390e-02   1.000 4.90559e-02 2.18451e-02
         46    12   -1.566064   -1.583403 1.733924e-02   1.000 4.22510e-02 2.19356e-02
         47    12   -1.563317   -1.586967 2.365024e-02   1.000 3.19186e-02 2.40648e-02
         48    11   -1.561956   -1.594783 3.282679e-02   1.000 2.30501e-02 2.51799e-02
         49    10   -1.560763   -1.599153 3.838930e-02   1.000 1.46243e-02 2.55635e-02
         50    10   -1.559438   -1.600493 4.105420e-02   1.000 9.05753e-03 2.46395e-02
         51    11   -1.558123   -1.599126 4.100337e-02   1.000 1.03293e-02 2.24628e-02
         52    11   -1.557042   -1.595200 3.815870e-02   1.000 1.49339e-02 1.94198e-02
         53    11   -1.556245   -1.589148 3.290349e-02   1.000 1.89720e-02 1.60658e-02
         54    11   -1.555773   -1.581457 2.568383e-02   1.000 2.15093e-02 1.30164e-02
         55    12   -1.555919   -1.572736 1.681770e-02   1.000 2.22428e-02 1.08976e-02
         56    13   -1.558861   -1.563781 4.920121e-03   1.000 2.12904e-02 1.05081e-02
         57    12   -1.559266   -1.556865 2.400618e-03   1.000 1.96720e-02 1.03894e-02
         58    12   -1.559783   -1.549098 1.068510e-02   1.000 1.69422e-02 1.10864e-02
         59    11   -1.560318   -1.542563 1.775475e-02   1.000 1.32027e-02 1.17786e-02
         60    10   -1.560814   -1.538292 2.252171e-02   1.000 8.92555e-03 1.21366e-02
         61     9   -1.561305   -1.536500 2.480478e-02   1.000 5.13428e-03 1.20111e-02
         62    10   -1.561865   -1.537024 2.484076e-02   1.000 4.37916e-03 1.13856e-02
         63    12   -1.562365   -1.539577 2.278733e-02   1.000 6.89029e-03 1.03429e-02
         64    11   -1.562870   -1.543670 1.920043e-02   1.000 9.57545e-03 9.03492e-03
         65    11   -1.563434   -1.548751 1.468275e-02   1.000 1.14754e-02 7.67063e-03
         66    12   -1.563757   -1.554295 9.462057e-03   1.000 1.24563e-02 6.49632e-03
         67    13   -1.563845   -1.559633 4.212222e-03   1.000 1.25220e-02 5.74741e-03
         68    13   -1.563763   -1.564282 5.188259e-04   1.000 1.18059e-02 5.50975e-03
         69    12   -1.563527   -1.568023 4.496544e-03   1.000 1.04833e-02 5.65388e-03
         70    11   -1.563166   -1.570700 7.533692e-03   1.000 8.75545e-03 5.94242e-03
         71    10   -1.562741   -1.572279 9.537712e-03   1.000 6.83639e-03 6.18167e-03
         72     8   -1.562306   -1.572820 1.051386e-02   1.000 4.97035e-03 6.26205e-03
         73     9   -1.561837   -1.572530 1.069242e-02   1.000 3.52709e-03 6.14286e-03
         74    10   -1.561448   -1.571554 1.010659e-02   1.000 3.02978e-03 5.82076e-03
         75    11   -1.561233   -1.570073 8.840178e-03   1.000 3.49226e-03 5.32960e-03
         76    11   -1.561481   -1.568363 6.881757e-03   1.000 4.36063e-03 4.75548e-03
         77    10   -1.561261   -1.566767 5.506094e-03   1.000 5.25598e-03 4.05753e-03
         78    12   -1.561095   -1.565159 4.063828e-03   1.000 5.83196e-03 3.42534e-03
         79    12   -1.561082   -1.563573 2.490939e-03   1.000 5.86440e-03 3.01400e-03
         80    13   -1.561179   -1.561815 6.365424e-04   1.000 5.50016e-03 2.88190e-03
         81    12   -1.561314   -1.560012 1.301832e-03   1.000 4.85589e-03 2.94255e-03
         82    11   -1.561497   -1.558347 3.150714e-03   1.000 4.01279e-03 3.07769e-03
         83    10   -1.561685   -1.557052 4.632784e-03   1.000 3.04360e-03 3.18837e-03
         84     9   -1.561854   -1.556259 5.594291e-03   1.000 2.09444e-03 3.21637e-03
         85     9   -1.562028   -1.556006 6.021897e-03   1.000 1.47820e-03 3.13856e-03
         86    11   -1.562171   -1.556278 5.892425e-03   1.000 1.58413e-03 2.95545e-03
         87    12   -1.562289   -1.556994 5.294825e-03   1.000 2.12345e-03 2.69010e-03
         88    12   -1.562413   -1.558026 4.386647e-03   1.000 2.63900e-03 2.37988e-03
         89    12   -1.562519   -1.559253 3.266205e-03   1.000 2.97240e-03 2.07384e-03
         90    13   -1.562560   -1.560533 2.026963e-03   1.000 3.09589e-03 1.82482e-03
         91    13   -1.562553   -1.561725 8.286453e-04   1.000 3.01879e-03 1.67422e-03
         92    13   -1.562504   -1.562760 2.560953e-04   1.000 2.77517e-03 1.62977e-03
         93    12   -1.562387   -1.563597 1.210244e-03   1.000 2.37969e-03 1.66485e-03
         94    10   -1.562262   -1.564353 2.090861e-03   1.000 1.93658e-03 1.71578e-03
         95    10   -1.562149   -1.564809 2.659973e-03   1.000 1.49305e-03 1.74589e-03
         96     8   -1.562033   -1.564958 2.925011e-03   1.000 1.13092e-03 1.72993e-03
         97     9   -1.561910   -1.564853 2.943115e-03   1.000 9.61590e-04 1.66270e-03
         98    11   -1.561946   -1.564541 2.594857e-03   1.000 9.66718e-04 1.55682e-03
         99    11   -1.561914   -1.564171 2.256636e-03   1.000 1.15403e-03 1.41650e-03
        100    11   -1.561880   -1.563652 1.772110e-03   1.000 1.34564e-03 1.26859e-03
        101    11   -1.561856   -1.563064 1.208593e-03   1.000 1.47341e-03 1.13367e-03
        102    11   -1.561843   -1.562481 6.378304e-04   1.000 1.51897e-03 1.03030e-03
        103    11   -1.561845   -1.561948 1.030248e-04   1.000 1.48660e-03 9.67271e-04
        104    11   -1.561839   -1.561493 3.461207e-04   1.000 1.39032e-03 9.37751e-04
        105    11   -1.561857   -1.561199 6.580398e-04   1.000 1.23516e-03 9.32637e-04
        106    11   -1.561896   -1.560979 9.179159e-04   1.000 1.03923e-03 9.41045e-04
        107    10   -1.561945   -1.560817 1.128431e-03   1.000 8.38872e-04 9.44778e-04
        108     9   -1.561995   -1.560723 1.272165e-03   1.000 6.80820e-04 9.31523e-04
        109     8   -1.562046   -1.560703 1.342469e-03   1.000 6.11262e-04 8.96804e-04
        110    10   -1.562086   -1.560770 1.316276e-03   1.000 6.40454e-04 8.42242e-04
        111    11   -1.562114   -1.560919 1.194656e-03   1.000 7.24228e-04 7.74186e-04
        112    11   -1.562107   -1.561141 9.656143e-04   1.000 7.87641e-04 7.07461e-04
        113    10   -1.562112   -1.561501 6.112585e-04   1.000 8.47470e-04 6.41687e-04
        114    10   -1.562116   -1.561816 2.999458e-04   1.000 8.68878e-04 5.91990e-04
        115    11   -1.562115   -1.562099 1.561658e-05   1.000 8.48448e-04 5.58958e-04
        116    10   -1.562108   -1.562331 2.220447e-04   1.000 7.93498e-04 5.41064e-04
        117    10   -1.562098   -1.562494 3.958528e-04   1.000 7.15815e-04 5.33235e-04
        118    10   -1.562083   -1.562594 5.114649e-04   1.000 6.27992e-04 5.29274e-04
        119     9   -1.562066   -1.562638 5.721842e-04   1.000 5.42937e-04 5.23844e-04
        120     9   -1.562047   -1.562635 5.879327e-04   1.000 4.73619e-04 5.13251e-04
        121     9   -1.562029   -1.562594 5.647602e-04   1.000 4.31535e-04 4.95527e-04
        122    10   -1.562014   -1.562523 5.090052e-04   1.000 4.21155e-04 4.70612e-04
        123    10   -1.562001   -1.562434 4.328728e-04   1.000 4.35309e-04 4.39939e-04
        124    10   -1.561992   -1.562334 3.425179e-04   1.000 4.60034e-04 4.06233e-04
        125    10   -1.561985   -1.562230 2.446950e-04   1.000 4.82253e-04 3.73083e-04
        126    10   -1.561979   -1.562127 1.481511e-04   1.000 4.92691e-04 3.43560e-04
        127    11   -1.561975   -1.562040 6.496554e-05   1.000 4.86937e-04 3.21699e-04
        128    11   -1.561980   -1.561967 1.341533e-05   1.000 4.63136e-04 3.09480e-04
        129    10   -1.561991   -1.561889 1.023987e-04   1.000 4.29335e-04 3.03957e-04
        130    10   -1.562004   -1.561812 1.911363e-04   1.000 3.93357e-04 3.00265e-04
        131    10   -1.562014   -1.561749 2.650997e-04   1.000 3.57265e-04 2.95417e-04
        132     9   -1.562016   -1.561717 2.987701e-04   1.000 3.22911e-04 2.89688e-04
        133     9   -1.562023   -1.561731 2.919531e-04   1.000 3.03649e-04 2.79822e-04
        134     9   -1.562031   -1.561756 2.751059e-04   1.000 2.99291e-04 2.66627e-04
        135    10   -1.562037   -1.561795 2.417192e-04   1.000 3.05608e-04 2.50490e-04
        136    10   -1.562042   -1.561843 1.989363e-04   1.000 3.15636e-04 2.32910e-04
        137    10   -1.562046   -1.561895 1.504903e-04   1.000 3.23392e-04 2.15759e-04
        138    10   -1.562048   -1.561948 9.981305e-05   1.000 3.25370e-04 2.00863e-04
        139    10   -1.562048   -1.561999 4.949497e-05   1.000 3.20261e-04 1.89504e-04
        140    10   -1.562047   -1.562045 1.828061e-06   1.000 3.08471e-04 1.81969e-04
        141    10   -1.562044   -1.562086 4.111056e-05   1.000 2.91694e-04 1.77472e-04
        142    10   -1.562041   -1.562118 7.751370e-05   1.000 2.72530e-04 1.74538e-04
        143    10   -1.562037   -1.562143 1.059614e-04   1.000 2.54012e-04 1.71598e-04
        144    10   -1.562032   -1.562158 1.255279e-04   1.000 2.38940e-04 1.67466e-04
        145     9   -1.562028   -1.562163 1.356389e-04   1.000 2.29075e-04 1.61552e-04
        146     9   -1.562023   -1.562160 1.369666e-04   1.000 2.24512e-04 1.53832e-04
        147    10   -1.562020   -1.562149 1.293521e-04   1.000 2.23830e-04 1.44809e-04
        148    10   -1.562017   -1.562131 1.144713e-04   1.000 2.24826e-04 1.35266e-04
        149    10   -1.562014   -1.562108 9.334496e-05   1.000 2.25359e-04 1.26115e-04
        150    10   -1.562013   -1.562081 6.783504e-05   1.000 2.23986e-04 1.18170e-04
        151    10   -1.562013   -1.562053 3.987890e-05   1.000 2.20096e-04 1.11931e-04
        152    10   -1.562013   -1.562025 1.150407e-05   1.000 2.13836e-04 1.07447e-04
        153    10   -1.562015   -1.561999 1.535318e-05   1.000 2.05923e-04 1.04338e-04
        154    10   -1.562016   -1.561977 3.898175e-05   1.000 1.97406e-04 1.01966e-04
        155    10   -1.562018   -1.561960 5.801849e-05   1.000 1.89389e-04 9.96717e-05
        156    10   -1.562021   -1.561949 7.154130e-05   1.000 1.82761e-04 9.69467e-05
        157    10   -1.562023   -1.561944 7.908381e-05   1.000 1.77965e-04 9.35232e-05
        158    10   -1.562025   -1.561945 8.061866e-05   1.000 1.74911e-04 8.93793e-05
        159    10   -1.562027   -1.561951 7.662776e-05   1.000 1.73096e-04 8.46908e-05
        160    10   -1.562029   -1.561961 6.778183e-05   1.000 1.71820e-04 7.97768e-05
        161    10   -1.562030   -1.561975 5.512258e-05   1.000 1.70400e-04 7.50146e-05
        162    10   -1.562031   -1.561991 3.985474e-05   1.000 1.68346e-04 7.07516e-05
        163    10   -1.562031   -1.562008 2.327450e-05   1.000 1.65430e-04 6.72178e-05
        164    10   -1.562031   -1.562024 6.661638e-06   1.000 1.61685e-04 6.44663e-05
        165    10   -1.562030   -1.562039 8.813694e-06   1.000 1.57350e-04 6.23673e-05
        166    10   -1.562029   -1.562051 2.216970e-05   1.000 1.52784e-04 6.06644e-05
        167    10   -1.562028   -1.562061 3.267155e-05   1.000 1.48369e-04 5.90642e-05
        168    10   -1.562027   -1.562067 3.984695e-05   1.000 1.44415e-04 5.73202e-05
        169    10   -1.562025   -1.562069 4.355590e-05   1.000 1.41092e-04 5.52851e-05
        170    10   -1.562024   -1.562068 4.381011e-05   1.000 1.38405e-04 5.29288e-05
        171    10   -1.562023   -1.562064 4.100426e-05   1.000 1.36214e-04 5.03203e-05
        172    10   -1.562022   -1.562058 3.557120e-05   1.000 1.34300e-04 4.76078e-05
        173    10   -1.562022   -1.562050 2.817814e-05   1.000 1.32434e-04 4.49750e-05
        174    10   -1.562021   -1.562041 1.956149e-05   1.000 1.30431e-04 4.25928e-05
        175    11   -1.562021   -1.562032 1.046806e-05   1.000 1.28199e-04 4.05756e-05
        176    11   -1.562021   -1.562023 1.564210e-06   1.000 1.25728e-04 3.89489e-05
        177    11   -1.562022   -1.562015 6.464534e-06   1.000 1.23089e-04 3.76521e-05
        178    10   -1.562022   -1.562009 1.316283e-05   1.000 1.20399e-04 3.65629e-05
        179    10   -1.562023   -1.562005 1.818889e-05   1.000 1.17791e-04 3.55424e-05
        180    10   -1.562023   -1.562002 2.143360e-05   1.000 1.15366e-04 3.44745e-05
        181    10   -1.562024   -1.562001 2.282345e-05   1.000 1.13177e-04 3.32898e-05
        182    10   -1.562025   -1.562002 2.247977e-05   1.000 1.11220e-04 3.19742e-05
        183    10   -1.562025   -1.562005 2.063981e-05   1.000 1.09444e-04 3.05592e-05
        184    10   -1.562026   -1.562008 1.757726e-05   1.000 1.07772e-04 2.91114e-05
        185    10   -1.562026   -1.562012 1.364219e-05   1.000 1.06126e-04 2.77106e-05
        186    11   -1.562026   -1.562017 9.217002e-06   1.000 1.04441e-04 2.64288e-05
        187    11   -1.562026   -1.562022 4.646281e-06   1.000 1.02684e-04 2.53107e-05
        188    11   -1.562026   -1.562026 2.929665e-07   1.000 1.00848e-04 2.43656e-05
        189    11   -1.562026   -1.562030 3.585785e-06   1.000 9.89597e-05 2.35672e-05
        190    11   -1.562026   -1.562032 6.786151e-06   1.000 9.70591e-05 2.28656e-05
        191    11   -1.562025   -1.562035 9.172504e-06   1.000 9.51920e-05 2.22033e-05
        192    10   -1.562025   -1.562036 1.068581e-05   1.000 9.33985e-05 2.15309e-05
        193    10   -1.562025   -1.562036 1.131211e-05   1.000 9.16954e-05 2.08184e-05
        194    10   -1.562024   -1.562036 1.113635e-05   1.000 9.00905e-05 2.00585e-05
        195    10   -1.562024   -1.562034 1.026706e-05   1.000 8.85714e-05 1.92630e-05
        196    11   -1.562024   -1.562033 8.825235e-06   1.000 8.71124e-05 1.84591e-05
        197    11   -1.562024   -1.562031 6.963485e-06   1.000 8.56902e-05 1.76804e-05
        198    11   -1.562024   -1.562029 4.876297e-06   1.000 8.42800e-05 1.69578e-05
        199    11   -1.562024   -1.562026 2.718350e-06   1.000 8.28677e-05 1.63119e-05
        200    11   -1.562024   -1.562024 6.325816e-07   1.000 8.14502e-05 1.57479e-05
        201    11   -1.562024   -1.562023 1.256233e-06   1.000 8.00334e-05 1.52563e-05
        202    11   -1.562024   -1.562021 2.849636e-06   1.000 7.86292e-05 1.48166e-05
        203    11   -1.562024   -1.562020 4.078828e-06   1.000 7.72514e-05 1.44042e-05
        204    10   -1.562024   -1.562019 4.903969e-06   1.000 7.59127e-05 1.39968e-05
        205    10   -1.562024   -1.562019 5.298030e-06   1.000 7.46164e-05 1.35802e-05
        206    10   -1.562025   -1.562019 5.321347e-06   1.000 7.33650e-05 1.31501e-05
        207    11   -1.562025   -1.562020 5.009680e-06   1.000 7.21516e-05 1.27101e-05
        208    11   -1.562025   -1.562020 4.387167e-06   1.000 7.09701e-05 1.22709e-05
        209    11   -1.562025   -1.562021 3.536647e-06   1.000 6.98093e-05 1.18463e-05
        210    11   -1.562025   -1.562022 2.532178e-06   1.000 6.86607e-05 1.14482e-05
        211    11   -1.562025   -1.562024 1.458024e-06   1.000 6.75196e-05 1.10844e-05
        212    11   -1.562025   -1.562025 3.859747e-07   1.000 6.63850e-05 1.07564e-05
        213    11   -1.562025   -1.562026 6.136419e-07   1.000 6.52593e-05 1.04598e-05
        214    11   -1.562025   -1.562026 1.494079e-06   1.000 6.41470e-05 1.01861e-05
        215    11   -1.562025   -1.562027 2.195218e-06   1.000 6.30532e-05 9.92545e-06
        216    11   -1.562025   -1.562027 2.698725e-06   1.000 6.19821e-05 9.66907e-06
        217    10   -1.562025   -1.562028 2.996796e-06   1.000 6.09374e-05 9.41129e-06
        218    11   -1.562025   -1.562028 3.065019e-06   1.000 5.99161e-05 9.15046e-06
        219    10   -1.562025   -1.562027 2.946954e-06   1.000 5.89210e-05 8.88851e-06
        220    11   -1.562024   -1.562027 2.660379e-06   1.000 5.79454e-05 8.62958e-06
        221    11   -1.562024   -1.562027 2.226596e-06   1.000 5.69889e-05 8.37906e-06
        222    11   -1.562024   -1.562026 1.700547e-06   1.000 5.60478e-05 8.14175e-06
        223    11   -1.562024   -1.562026 1.124710e-06   1.000 5.51201e-05 7.92060e-06
        224    11   -1.562024   -1.562025 5.393361e-07   1.000 5.42052e-05 7.71624e-06
        225    11   -1.562024   -1.562024 1.594820e-08   1.000 5.33035e-05 7.52709e-06
        226    11   -1.562024   -1.562024 5.068923e-07   1.000 5.24160e-05 7.34995e-06
        227    11   -1.562024   -1.562024 9.065840e-07   1.000 5.15439e-05 7.18106e-06
        228    11   -1.562025   -1.562023 1.196764e-06   1.000 5.06882e-05 7.01695e-06
        229    11   -1.562025   -1.562023 1.368252e-06   1.000 4.98493e-05 6.85525e-06
        230    10   -1.562025   -1.562023 1.414834e-06   1.000 4.90277e-05 6.69499e-06
        231    11   -1.562025   -1.562023 1.358780e-06   1.000 4.82204e-05 6.53641e-06
        232    11   -1.562025   -1.562024 1.207876e-06   1.000 4.74284e-05 6.38086e-06
        233    11   -1.562025   -1.562024 9.768215e-07   1.000 4.66500e-05 6.23006e-06
        234    11   -1.562025   -1.562024 6.931411e-07   1.000 4.58836e-05 6.08545e-06
        235    11   -1.562025   -1.562024 3.811726e-07   1.000 4.51287e-05 5.94794e-06
        236    11   -1.562025   -1.562025 6.508654e-08   1.000 4.43848e-05 5.81763e-06
        237    11   -1.562025   -1.562025 2.329724e-07   1.000 4.36519e-05 5.69387e-06
        238    11   -1.562025   -1.562025 4.942431e-07   1.000 4.29304e-05 5.57545e-06
        239    11   -1.562025   -1.562025 7.043735e-07   1.000 4.22207e-05 5.46096e-06
        240    11   -1.562025   -1.562026 8.540132e-07   1.000 4.15230e-05 5.34913e-06
        241    11   -1.562025   -1.562026 9.389740e-07   1.000 4.08376e-05 5.23909e-06
        242    11   -1.562025   -1.562026 9.599882e-07   1.000 4.01644e-05 5.13048e-06
        243    11   -1.562025   -1.562026 9.221519e-07   1.000 3.95032e-05 5.02345e-06
        244    11   -1.562025   -1.562025 8.341187e-07   1.000 3.88537e-05 4.91849e-06
        245    11   -1.562025   -1.562025 7.071140e-07   1.000 3.82152e-05 4.81625e-06
        246    11   -1.562025   -1.562025 5.538609e-07   1.000 3.75875e-05 4.71730e-06
        247    11   -1.562025   -1.562025 3.875381e-07   1.000 3.69701e-05 4.62201e-06
        248    11   -1.562025   -1.562025 2.208099e-07   1.000 3.63628e-05 4.53046e-06
        249    11   -1.562025   -1.562025 6.499397e-08   1.000 3.57655e-05 4.44242e-06
        250    11   -1.562025   -1.562025 7.058070e-08   1.000 3.51780e-05 4.35748e-06
        251    11   -1.562025   -1.562025 1.790004e-07   1.000 3.46004e-05 4.27510e-06
        252    11   -1.562025   -1.562024 2.559709e-07   1.000 3.40327e-05 4.19482e-06
        253    11   -1.562025   -1.562024 2.998144e-07   1.000 3.34746e-05 4.11626e-06
        254    11   -1.562025   -1.562024 3.112892e-07   1.000 3.29260e-05 4.03922e-06
        255    11   -1.562025   -1.562024 2.932682e-07   1.000 3.23867e-05 3.96366e-06
        256    11   -1.562025   -1.562025 2.503083e-07   1.000 3.18564e-05 3.88969e-06
        257    11   -1.562025   -1.562025 1.881571e-07   1.000 3.13348e-05 3.81743e-06
        258    11   -1.562025   -1.562025 1.131685e-07   1.000 3.08217e-05 3.74702e-06
        259    11   -1.562025   -1.562025 3.183872e-08   1.000 3.03168e-05 3.67852e-06
        260    11   -1.562025   -1.562025 4.958056e-08   1.000 2.98200e-05 3.61190e-06
        261    11   -1.562025   -1.562025 1.256037e-07   1.000 2.93313e-05 3.54706e-06
        262    11   -1.562025   -1.562025 1.916863e-07   1.000 2.88504e-05 3.48381e-06
        263    11   -1.562025   -1.562025 2.444640e-07   1.000 2.83774e-05 3.42197e-06
        264    11   -1.562025   -1.562025 2.818317e-07   1.000 2.79121e-05 3.36135e-06
        265    11   -1.562025   -1.562025 3.028989e-07   1.000 2.74546e-05 3.30183e-06
        266    11   -1.562025   -1.562025 3.079636e-07   1.000 2.70047e-05 3.24335e-06
        267    11   -1.562025   -1.562025 2.983305e-07   1.000 2.65624e-05 3.18588e-06
        268    11   -1.562025   -1.562025 2.761185e-07   1.000 2.61274e-05 3.12949e-06
        269    11   -1.562025   -1.562025 2.440333e-07   1.000 2.56997e-05 3.07421e-06
        270    11   -1.562025   -1.562025 2.051290e-07   1.000 2.52790e-05 3.02012e-06
        271    11   -1.562025   -1.562025 1.625743e-07   1.000 2.48653e-05 2.96724e-06
        272    11   -1.562025   -1.562025 1.194377e-07   1.000 2.44584e-05 2.91557e-06
        273    11   -1.562025   -1.562025 7.850152e-08   1.000 2.40582e-05 2.86509e-06
        274    11   -1.562025   -1.562025 4.211525e-08   1.000 2.36646e-05 2.81572e-06
        275    11   -1.562025   -1.562025 1.209097e-08   1.000 2.32775e-05 2.76741e-06
        276    11   -1.562025   -1.562025 1.035606e-08   1.000 2.28968e-05 2.72007e-06
        277    11   -1.562025   -1.562025 2.462331e-08   1.000 2.25224e-05 2.67364e-06
        278    11   -1.562025   -1.562025 3.069697e-08   1.000 2.21542e-05 2.62808e-06
        279    11   -1.562025   -1.562025 2.909335e-08   1.000 2.17920e-05 2.58337e-06
        280    11   -1.562025   -1.562025 2.077256e-08   1.000 2.14358e-05 2.53949e-06
        281    11   -1.562025   -1.562025 7.032515e-09   1.000 2.10854e-05 2.49643e-06
        282    11   -1.562025   -1.562025 1.060821e-08   1.000 2.07407e-05 2.45419e-06
        283    11   -1.562025   -1.562025 3.053006e-08   1.000 2.04016e-05 2.41277e-06
        284    11   -1.562025   -1.562025 5.112674e-08   1.000 2.00681e-05 2.37215e-06
        285    11   -1.562025   -1.562025 7.090761e-08   1.000 1.97400e-05 2.33229e-06
        286    11   -1.562025   -1.562025 8.858277e-08   1.000 1.94172e-05 2.29317e-06
        287    11   -1.562025   -1.562025 1.031274e-07   1.000 1.90997e-05 2.25475e-06
        288    11   -1.562025   -1.562025 1.138227e-07   1.000 1.87874e-05 2.21700e-06
        289    11   -1.562025   -1.562025 1.202740e-07   1.000 1.84803e-05 2.17989e-06
        290    11   -1.562025   -1.562025 1.224050e-07   1.000 1.81781e-05 2.14342e-06
        291    11   -1.562025   -1.562025 1.204330e-07   1.000 1.78810e-05 2.10756e-06
        292    11   -1.562025   -1.562025 1.148268e-07   1.000 1.75887e-05 2.07232e-06
        293    11   -1.562025   -1.562025 1.062512e-07   1.000 1.73012e-05 2.03769e-06
        294    11   -1.562025   -1.562025 9.550505e-08   1.000 1.70185e-05 2.00368e-06
        295    11   -1.562025   -1.562025 8.345497e-08   1.000 1.67404e-05 1.97028e-06
        296    11   -1.562025   -1.562025 7.097110e-08   1.000 1.64668e-05 1.93749e-06
        297    11   -1.562025   -1.562025 5.886852e-08   1.000 1.61977e-05 1.90529e-06
        298    11   -1.562025   -1.562025 4.785777e-08   1.000 1.59331e-05 1.87367e-06
        299    11   -1.562025   -1.562025 3.850704e-08   1.000 1.56728e-05 1.84261e-06
        300    11   -1.562025   -1.562025 3.121757e-08   1.000 1.54167e-05 1.81211e-06
        301    11   -1.562025   -1.562025 2.621273e-08   1.000 1.51649e-05 1.78214e-06
        302    11   -1.562025   -1.562025 2.354026e-08   1.000 1.49171e-05 1.75269e-06
        303    11   -1.562025   -1.562025 2.308633e-08   1.000 1.46735e-05 1.72374e-06
        304    11   -1.562025   -1.562025 2.459926e-08   1.000 1.44338e-05 1.69529e-06
        305    11   -1.562025   -1.562025 2.772042e-08   1.000 1.41980e-05 1.66734e-06
        306    11   -1.562025   -1.562025 3.201944e-08   1.000 1.39661e-05 1.63986e-06
        307    11   -1.562025   -1.562025 3.703079e-08   1.000 1.37380e-05 1.61285e-06
        308    11   -1.562025   -1.562025 4.228912e-08   1.000 1.35136e-05 1.58630e-06
        309    11   -1.562025   -1.562025 4.736104e-08   1.000 1.32928e-05 1.56020e-06
        310    11   -1.562025   -1.562025 5.187133e-08   1.000 1.30757e-05 1.53454e-06
        311    11   -1.562025   -1.562025 5.552254e-08   1.000 1.28621e-05 1.50931e-06
        312    11   -1.562025   -1.562025 5.810721e-08   1.000 1.26520e-05 1.48450e-06
        313    11   -1.562025   -1.562025 5.951251e-08   1.000 1.24453e-05 1.46011e-06
        314    11   -1.562025   -1.562025 5.971809e-08   1.000 1.22420e-05 1.43611e-06
        315    11   -1.562025   -1.562025 5.878759e-08   1.000 1.20420e-05 1.41251e-06
        316    11   -1.562025   -1.562025 5.685552e-08   1.000 1.18453e-05 1.38930e-06
        317    11   -1.562025   -1.562025 5.411054e-08   1.000 1.16519e-05 1.36648e-06
        318    11   -1.562025   -1.562025 5.077687e-08   1.000 1.14615e-05 1.34404e-06
        319    11   -1.562025   -1.562025 4.709536e-08   1.000 1.12743e-05 1.32197e-06
        320    11   -1.562025   -1.562025 4.330532e-08   1.000 1.10902e-05 1.30028e-06
        321    11   -1.562025   -1.562025 3.962858e-08   1.000 1.09091e-05 1.27895e-06
        322    11   -1.562025   -1.562025 3.625638e-08   1.000 1.07309e-05 1.25798e-06
        323    11   -1.562025   -1.562025 3.333974e-08   1.000 1.05557e-05 1.23736e-06
        324    11   -1.562025   -1.562025 3.098373e-08   1.000 1.03833e-05 1.21709e-06
        325    11   -1.562025   -1.562025 2.924532e-08   1.000 1.02137e-05 1.19716e-06
        326    11   -1.562025   -1.562025 2.813479e-08   1.000 1.00469e-05 1.17756e-06
        327    11   -1.562025   -1.562025 2.762007e-08   1.000 9.88286e-06 1.15828e-06

      v2RDM iterations converged!

    Molecular point group: cs
    Full point group: Cs

    Geometry (in Angstrom), charge = 0, multiplicity = 2:

       Center              X                  Y                   Z               Mass       
    ------------   -----------------  -----------------  -----------------  -----------------
         H            0.666666666667     0.333333333333     0.000000000000     1.007825032230
         H            0.666666666667    -0.666666666667     0.000000000000     1.007825032230
         H           -1.333333333333     0.333333333333     0.000000000000     1.007825032230

  -AO BASIS SET INFORMATION:
    Name                   = STO-3G
    Blend                  = STO-3G
    Total number of shells = 3
    Number of primitives   = 9
    Number of AO           = 3
    Number of SO           = 3
    Maximum AM             = 0
    Spherical Harmonics    = TRUE

  -Contraction Scheme:
    Atom   Type   All Primitives // Shells:
   ------ ------ --------------------------
       1     H     3s // 1s 
       2     H     3s // 1s 
       3     H     3s // 1s 

  ==> AO Basis Functions <==

    [ STO-3G ]
    spherical
    ****
    H   1
    S   3 1.00
                         3.42525091           0.15432897
                         0.62391373           0.53532814
                         0.16885540           0.44463454
    ****
    H   2
    S   3 1.00
                         3.42525091           0.15432897
                         0.62391373           0.53532814
                         0.16885540           0.44463454
    ****
    H   3
    S   3 1.00
                         3.42525091           0.15432897
                         0.62391373           0.53532814
                         0.16885540           0.44463454
    ****

      na:                                    2.000000
      nb:                                    1.000000
      v2RDM total spin [S(S+1)]:             0.750000

      Nuclear Repulsion Energy:                1.030421059045
      Two-Electron Energy:                     1.059690992673
      Kinetic Energy:                          1.982274074380
      Electron-Nuclear Potential Energy:      -5.634411013500

    * v2RDM total energy:                     -1.562024887402


 # Natural Orbital Occupation Numbers (alpha) #
 Irrep: 1
      1:  0.9999463
      2:  0.9690856
      3:  0.0309681

 Irrep: 2


 # Natural Orbital Occupation Numbers (beta) #
 Irrep: 1
      1:  0.9690319
      2:  0.0309144
      3:  0.0000537

 Irrep: 2


  ==> Iteration count <==

      Microiterations:                    3536
      Macroiterations:                     328
      Orbital optimization steps:            0

  ==> Wall time <==

      Microiterations:                    0.17 s
      Macroiterations:                    0.06 s
      Orbital optimization:               0.00 s
      Total:                              0.26 s


Scratch directory: /tmp/

*** tstart() called on illegally-used-at.fsu
*** at Thu Jul 16 09:22:25 2020

   => Loading Basis Set <=

    Name: STO-3G
    Role: ORBITAL
    Keyword: BASIS
    atoms 1-3 entry H          line    19 file /Users/deprince/edeprince3/psi4/install/master/share/psi4/basis/sto-3g.gbs 


         ---------------------------------------------------------
                                   SCF
               by Justin Turney, Rob Parrish, Andy Simmonett
                          and Daniel G. A. Smith
                             ROHF Reference
                        1 Threads,    500 MiB Core
         ---------------------------------------------------------

  ==> Geometry <==

    Molecular point group: cs
    Full point group: Cs

    Geometry (in Angstrom), charge = 0, multiplicity = 2:

       Center              X                  Y                   Z               Mass       
    ------------   -----------------  -----------------  -----------------  -----------------
         H            0.666666666667     0.333333333333     0.000000000000     1.007825032230
         H            0.666666666667    -0.666666666667     0.000000000000     1.007825032230
         H           -1.333333333333     0.333333333333     0.000000000000     1.007825032230

  Running in cs symmetry.

  Rotational constants: A =     35.98571  B =      5.83115  C =      5.01802 [cm^-1]
  Rotational constants: A = 1078824.40778  B = 174813.35841  C = 150436.53194 [MHz]
  Nuclear repulsion =    1.030421059045370

  Charge       = 0
  Multiplicity = 2
  Electrons    = 3
  Nalpha       = 2
  Nbeta        = 1

  ==> Algorithm <==

  SCF Algorithm Type is PK.
  DIIS enabled.
  MOM disabled.
  Fractional occupation disabled.
  Guess Type is SAD.
  Energy threshold   = 1.00e-08
  Density threshold  = 1.00e-10
  Integral threshold = 0.00e+00

  ==> Primary Basis <==

  Basis Set: STO-3G
    Blend: STO-3G
    Number of shells: 3
    Number of basis function: 3
    Number of Cartesian functions: 3
    Spherical Harmonics?: true
    Max angular momentum: 0

  ==> Pre-Iterations <==

   -------------------------------------------------------
    Irrep   Nso     Nmo     Nalpha   Nbeta   Ndocc  Nsocc
   -------------------------------------------------------
     A'         3       3       0       0       0       0
     A"         0       0       0       0       0       0
   -------------------------------------------------------
    Total       3       3       2       1       1       1
   -------------------------------------------------------

  ==> Integral Setup <==

  Using in-core PK algorithm.
   Calculation information:
      Number of atoms:                   3
      Number of AO shells:               3
      Number of primitives:              9
      Number of atomic orbitals:         3
      Number of basis functions:         3

      Integral cutoff                 1.00e-12
      Number of threads:                 1

  Performing in-core PK
  Using 42 doubles for integral storage.
  We computed 21 shell quartets total.
  Whereas there are 21 unique shell quartets.

  ==> DiskJK: Disk-Based J/K Matrices <==

    J tasked:                  Yes
    K tasked:                  Yes
    wK tasked:                  No
    Memory [MiB]:              375
    Schwarz Cutoff:          1E-12

    OpenMP threads:              1

  Minimum eigenvalue in the overlap matrix is 5.0189908248E-01.
  Reciprocal condition number of the overlap matrix is 3.2725092515E-01.
    Using symmetric orthogonalization.
  SCF Guess: Superposition of Atomic Densities via on-the-fly atomic UHF.

  ==> Iterations <==

                        Total Energy        Delta E     RMS |[F,P]|

   @ROHF iter SAD:    -0.92255934096179   -9.22559e-01   0.00000e+00 
   @ROHF iter   1:    -1.51845795287510   -5.95899e-01   2.25239e-02 DIIS
   @ROHF iter   2:    -1.52659196685382   -8.13401e-03   4.53047e-03 DIIS
   @ROHF iter   3:    -1.52692043982069   -3.28473e-04   3.84157e-04 DIIS
   @ROHF iter   4:    -1.52692280842974   -2.36861e-06   2.18042e-05 DIIS
   @ROHF iter   5:    -1.52692281533310   -6.90336e-09   4.47658e-07 DIIS
   @ROHF iter   6:    -1.52692281533632   -3.22453e-12   2.17148e-08 DIIS
   @ROHF iter   7:    -1.52692281533633   -9.76996e-15   5.08014e-11 DIIS
  Energy and wave function converged.


  ==> Post-Iterations <==

    Orbital Energies [Eh]
    ---------------------

    Doubly Occupied:                                                      

       1Ap    -0.490236  

    Singly Occupied:                                                      

       2Ap    -0.064297  

    Virtual:                                                              

       3Ap     0.457501  

    Final Occupation by Irrep:
             Ap   App 
    DOCC [     1,    0 ]
    SOCC [     1,    0 ]

  @ROHF Final Energy:    -1.52692281533633

   => Energetics <=

    Nuclear Repulsion Energy =              1.0304210590453695
    One-Electron Energy =                  -3.6846887718165688
    Two-Electron Energy =                   1.1273448974348668
    Total Energy =                         -1.5269228153363326

Computation Completed


Properties will be evaluated at   0.000000,   0.000000,   0.000000 [a0]

Properties computed using the SCF density matrix

  Nuclear Dipole Moment: [e a0]
     X:     0.0000      Y:     0.0000      Z:     0.0000

  Electronic Dipole Moment: [e a0]
     X:     0.0228      Y:    -0.0018      Z:     0.0000

  Dipole Moment: [e a0]
     X:     0.0228      Y:    -0.0018      Z:     0.0000     Total:     0.0229

  Dipole Moment: [D]
     X:     0.0579      Y:    -0.0046      Z:     0.0000     Total:     0.0581


*** tstop() called on illegally-used-at.fsu at Thu Jul 16 09:22:25 2020
Module time:
	user time   =       0.22 seconds =       0.00 minutes
	system time =       0.00 seconds =       0.00 minutes
	total time  =          0 seconds =       0.00 minutes
Total time:
	user time   =       0.71 seconds =       0.01 minutes
	system time =       0.02 seconds =       0.00 minutes
	total time  =          1 seconds =       0.02 minutes
 MINTS: Wrapper to libmints.
   by Justin Turney

   Calculation information:
      Number of threads:                 1
      Number of atoms:                   3
      Number of AO shells:               3
      Number of SO shells:               3
      Number of primitives:              9
      Number of atomic orbitals:         3
      Number of basis functions:         3

      Number of irreps:                  2
      Integral cutoff                 0.00e+00
      Number of functions per irrep: [   3    0 ]

 OEINTS: Overlap, kinetic, potential, dipole, and quadrupole integrals
         stored in file 35.

      Computing two-electron integrals...done
      Computed 21 non-zero two-electron integrals.
        Stored in file 33.


         ---------------------------------------------------------
                          Configuration Interaction
                            (a 'D E T C I' module)

                 C. David Sherrill, Daniel G. A. Smith, and
                              Matt L. Leininger
         ---------------------------------------------------------

Warning: iopen=0,opentype!=closed. Making iopen=1

   ==> Parameters <==

    EX LEVEL       =        3      H0 BLOCKSIZE  =     1000
    VAL EX LEVEL   =        0      H0 GUESS SIZE =     1000
    H0COUPLINGSIZE =        0      H0 COUPLING   =       NO
    MAXITER        =       24      NUM PRINT     =       20
    NUM ROOTS      =        1      ICORE         =        1
    PRINT LVL      =        1      FCI           =      YES
    R CONV         = 1.00e-04      MIXED         =      YES
    E CONV         = 1.00e-06      MIXED4        =      YES
    R4S            =       NO      REPL OTF      =       NO
    DIAG METHOD    =      SEM      FOLLOW ROOT   =        0
    PRECONDITIONER = DAVIDSON      UPDATE        = DAVIDSON
    S              =   0.5000      Ms0           =       NO
    GUESS VECTOR   =  H0BLOCK      OPENTYPE      = HIGHSPIN
    COLLAPSE SIZE  =        1      HD AVG        = EVANGELISTI
    MAX NUM VECS   =       25      REF SYM       =     AUTO
    IOPEN        =      YES

    EX ALLOW       =  1  1  1 
    STATE AVERAGE  =  0(1.00) 

   ==> CI Orbital and Space information <==

   ------------------------------------------
               Space    Total    A'    A"
   ------------------------------------------
                 Nso        3     3     0
                 Nmo        3     3     0
               Ndocc        1     1     0
               Nsocc        1     1     0
   ------------------------------------------
                 CI Spaces
   ------------------------------------------
        Dropped DOCC        0     0     0
              Active        3     3     0
        Dropped UOCC        0     0     0
   ------------------------------------------

   ==> Setting up CI strings <==

    There are 3 alpha and 3 beta strings
    The CI space requires 9 (9.00E+00) determinants and 1 blocks

   ==> Transforming CI integrals <==

	Presorting SO-basis two-electron integrals.
	Sorting File: SO Ints (nn|nn) nbuckets = 1
	Transforming the one-electron integrals and constructing Fock matrices
	Starting first half-transformation.
	Sorting half-transformed integrals.
	First half integral transformation complete.
	Starting second half-transformation.
	Two-electron integral transformation complete.

   ==> Starting CI iterations <==

    H0 Block Eigenvalue =  -1.56202496

    Simultaneous Expansion Method (Block Davidson Method)
    Using 1 initial trial vectors

     Iter   Root       Total Energy       Delta E      C RMS

   @CI  0:     0     -1.562024959450   -2.5924E+00   3.7409E-15  
    Warning: Norm of correction (root 0) is < 1.0E-13
   @CI  1:     0     -1.562024959450   0.0000E+00   1.9297E-14 c

   ==> Energetics <==

    SCF energy =           -1.526922815336333
    Total CI energy =      -1.562024959450467

   ==> FCI root 0 information <==

    FCI Root 0 energy =    -1.562024959450467

   The 9 most important determinants:

    *   1    0.984351  (    0,    0)  1ApX 2ApA 
    *   2    0.173416  (    2,    2)  2ApA 3ApX 
    *   3   -0.026967  (    1,    2)  1ApA 3ApX 
    *   4   -0.009765  (    2,    1)  2ApX 3ApA 
    *   5    0.008954  (    1,    1)  1ApA 2ApB 3ApA 
    *   6    0.006025  (    0,    1)  1ApA 2ApX 
    *   7    0.004764  (    0,    2)  1ApA 2ApA 3ApB 
    *   8    0.004190  (    2,    0)  1ApB 2ApA 3ApA 
    *   9   -0.000099  (    1,    0)  1ApX 3ApA 

		 "A good bug is a dead bug" 

			 - Starship Troopers

		 "I didn't write FORTRAN.  That's the problem."

			 - Edward Valeev
    v2RDM vs full CI..................................................PASSED

    Psi4 stopped on: Thursday, 16 July 2020 09:22AM
    Psi4 wall time for execution: 0:00:00.79

*** Psi4 exiting successfully. Buy a developer a beer!
