
    -----------------------------------------------------------------------
          Psi4: An Open-Source Ab Initio Electronic Structure Package
                               Psi4 1.9.1 

                         Git: Rev {HEAD} f53cdd7 dirty


    D. G. A. Smith, L. A. Burns, A. C. Simmonett, R. M. Parrish,
    M. C. Schieber, R. Galvelis, P. Kraus, H. Kruse, R. Di Remigio,
    A. Alenaizan, A. M. James, S. Lehtola, J. P. Misiewicz, M. Scheurer,
    R. A. Shaw, J. B. Schriber, Y. Xie, Z. L. Glick, D. A. Sirianni,
    J. S. O'Brien, J. M. Waldrop, A. Kumar, E. G. Hohenstein,
    B. P. Pritchard, B. R. Brooks, H. F. Schaefer III, A. Yu. Sokolov,
    K. Patkowski, A. E. DePrince III, U. Bozkaya, R. A. King,
    F. A. Evangelista, J. M. Turney, T. D. Crawford, C. D. Sherrill,
    J. Chem. Phys. 152(18) 184108 (2020). https://doi.org/10.1063/5.0006002

                            Additional Code Authors
    E. T. Seidl, C. L. Janssen, E. F. Valeev, M. L. Leininger,
    J. F. Gonthier, R. M. Richard, H. R. McAlexander, M. Saitow, X. Wang,
    P. Verma, M. H. Lechner, A. Jiang, S. Behnle, A. G. Heide,
    M. F. Herbst, and D. L. Poole

             Previous Authors, Complete List of Code Contributors,
                       and Citations for Specific Modules
    https://github.com/psi4/psi4/blob/master/codemeta.json
    https://github.com/psi4/psi4/graphs/contributors
    http://psicode.org/psi4manual/master/introduction.html#citing-psifour

    -----------------------------------------------------------------------


    Psi4 started on: Wednesday, 03 July 2024 10:35PM

    Process ID: 93252
    Host:       Alberts-MacBook-Pro.local
    PSIDATADIR: /Users/deprince/software/psi4/v1.9.1/psi4/install/share/psi4
    Memory:     500.0 MiB
    Threads:    1
    
  ==> Input File <==

--------------------------------------------------------------------------
#! MCPDFT

memory 1gb

sys.path.insert(0, '../../..')
import hilbert

molecule mol {
0 1
o
h 1 0.9
h 1 0.9 2 104.5
symmetry c1
}

set {
  basis sto-3g 
  scf_type df
  d_convergence 1e-8
  reference rhf
}

set hilbert {

  positivity dqg
  opdm_write_full true
  tpdm_write_full true
  constrain_spin true
  nat_orbs true
  r_convergence  1e-5
  e_convergence  1e-5
  cg_convergence 1e-6
  maxiter 1000000

  optimize_orbitals true

  mu_update_frequency 500

  restricted_docc  [ 0 ]
  active           [ 6 ]

  mcpdft_reference v2rdm
  mcpdft_type df
  mcpdft_functional blyp
  mcpdft_method mcpdft
}


# run v2rdm-casscf
en,wfn = energy('v2rdm-casscf',return_wfn=True)

# reference should be uks in mcpdft
set  reference uks

# pass v2rdm-casscf wavefunction object into mcpdft
energy('mcpdft',ref_wfn=wfn)

refmcpdft = -75.251339068269
compare_values(refmcpdft, variable("CURRENT ENERGY"), 5, "MCPDFT total energy") # TEST
--------------------------------------------------------------------------

  Memory set to 953.674 MiB by Python driver.

Scratch directory: /tmp/
   => Libint2 <=

    Primary   basis highest AM E, G, H:  5, 4, 3
    Auxiliary basis highest AM E, G, H:  6, 5, 4
    Onebody   basis highest AM E, G, H:  6, 5, 4
    Solid Harmonics ordering:            Gaussian

*** tstart() called on Alberts-MacBook-Pro.local
*** at Wed Jul  3 22:35:43 2024

   => Loading Basis Set <=

    Name: STO-3G
    Role: ORBITAL
    Keyword: BASIS
    atoms 1   entry O          line    81 file /Users/deprince/software/psi4/v1.9.1/psi4/install/share/psi4/basis/sto-3g.gbs 
    atoms 2-3 entry H          line    19 file /Users/deprince/software/psi4/v1.9.1/psi4/install/share/psi4/basis/sto-3g.gbs 


         ---------------------------------------------------------
                                   SCF
               by Justin Turney, Rob Parrish, Andy Simmonett
                          and Daniel G. A. Smith
                              RHF Reference
                        1 Threads,    953 MiB Core
         ---------------------------------------------------------

  ==> Geometry <==

    Molecular point group: c1
    Full point group: C2v

    Geometry (in Angstrom), charge = 0, multiplicity = 1:

       Center              X                  Y                   Z               Mass       
    ------------   -----------------  -----------------  -----------------  -----------------
         O            0.000000000000     0.000000000000    -0.061664597388    15.994914619570
         H            0.000000000000    -0.711620616369     0.489330954643     1.007825032230
         H            0.000000000000     0.711620616369     0.489330954643     1.007825032230

  Running in c1 symmetry.

  Rotational constants: A =     31.01920  B =     16.51522  C =     10.77722 [cm^-1]
  Rotational constants: A = 929932.18703  B = 495113.78650  C = 323092.90708 [MHz]
  Nuclear repulsion =    9.779406182852638

  Charge       = 0
  Multiplicity = 1
  Electrons    = 10
  Nalpha       = 5
  Nbeta        = 5

  ==> Algorithm <==

  SCF Algorithm Type is DF.
  DIIS enabled.
  MOM disabled.
  Fractional occupation disabled.
  Guess Type is SAD.
  Energy threshold   = 1.00e-08
  Density threshold  = 1.00e-08
  Integral threshold = 1.00e-12

  ==> Primary Basis <==

  Basis Set: STO-3G
    Blend: STO-3G
    Number of shells: 5
    Number of basis functions: 7
    Number of Cartesian functions: 7
    Spherical Harmonics?: true
    Max angular momentum: 1

   => Loading Basis Set <=

    Name: (STO-3G AUX)
    Role: JKFIT
    Keyword: DF_BASIS_SCF
    atoms 1   entry O          line   318 file /Users/deprince/software/psi4/v1.9.1/psi4/install/share/psi4/basis/def2-universal-jkfit.gbs 
    atoms 2-3 entry H          line    18 file /Users/deprince/software/psi4/v1.9.1/psi4/install/share/psi4/basis/def2-universal-jkfit.gbs 

  ==> Integral Setup <==

  ==> DiskDFJK: Density-Fitted J/K Matrices <==

    J tasked:                  Yes
    K tasked:                  Yes
    wK tasked:                  No
    OpenMP threads:              1
    Integrals threads:           1
    Memory [MiB]:              715
    Algorithm:                Core
    Integral Cache:           SAVE
    Schwarz Cutoff:          1E-12
    Fitting Condition:       1E-10

   => Auxiliary Basis Set <=

  Basis Set: (STO-3G AUX)
    Blend: DEF2-UNIVERSAL-JKFIT
    Number of shells: 37
    Number of basis functions: 113
    Number of Cartesian functions: 133
    Spherical Harmonics?: true
    Max angular momentum: 4

  Minimum eigenvalue in the overlap matrix is 3.0451396789E-01.
  Reciprocal condition number of the overlap matrix is 1.5178245879E-01.
    Using symmetric orthogonalization.

  ==> Pre-Iterations <==

  SCF Guess: Superposition of Atomic Densities via on-the-fly atomic UHF (no occupation information).

   -------------------------
    Irrep   Nso     Nmo    
   -------------------------
     A          7       7 
   -------------------------
    Total       7       7
   -------------------------

  ==> Iterations <==

                           Total Energy        Delta E     RMS |[F,P]|

   @DF-RHF iter SAD:   -74.37023554725336   -7.43702e+01   0.00000e+00 
   @DF-RHF iter   1:   -74.90248298618944   -5.32247e-01   3.38775e-02 DIIS/ADIIS
   @DF-RHF iter   2:   -74.94432569947358   -4.18427e-02   4.83775e-03 DIIS/ADIIS
   @DF-RHF iter   3:   -74.94505078784796   -7.25088e-04   1.14254e-03 DIIS/ADIIS
   @DF-RHF iter   4:   -74.94510392468226   -5.31368e-05   1.09874e-04 DIIS/ADIIS
   @DF-RHF iter   5:   -74.94510475537142   -8.30689e-07   5.27692e-06 DIIS
   @DF-RHF iter   6:   -74.94510475705388   -1.68247e-09   3.80708e-07 DIIS
   @DF-RHF iter   7:   -74.94510475706109   -7.20490e-12   1.47158e-09 DIIS
  Energy and wave function converged.


  ==> Post-Iterations <==

    Orbital Energies [Eh]
    ---------------------

    Doubly Occupied:                                                      

       1A    -20.236403     2A     -1.300494     3A     -0.649306  
       4A     -0.460191     5A     -0.396293  

    Virtual:                                                              

       6A      0.664877     7A      0.813382  

    Final Occupation by Irrep:
              A 
    DOCC [     5 ]
    NA   [     5 ]
    NB   [     5 ]

  @DF-RHF Final Energy:   -74.94510475706109

   => Energetics <=

    Nuclear Repulsion Energy =              9.7794061828526377
    One-Electron Energy =                -123.3636499852489692
    Two-Electron Energy =                  38.6391390453352415
    Total Energy =                        -74.9451047570610882

Computation Completed


Properties will be evaluated at   0.000000,   0.000000,   0.000000 [a0]

Properties computed using the SCF density matrix


 Multipole Moments:

 ------------------------------------------------------------------------------------
     Multipole            Electronic (a.u.)      Nuclear  (a.u.)        Total (a.u.)
 ------------------------------------------------------------------------------------

 L = 1.  Multiply by 2.5417464519 to convert [e a0] to [Debye]
 Dipole X            :         -0.0000000            0.0000000           -0.0000000
 Dipole Y            :          0.0000000            0.0000000            0.0000000
 Dipole Z            :         -0.2096192            0.9171694            0.7075502
 Magnitude           :                                                    0.7075502

 ------------------------------------------------------------------------------------

*** tstop() called on Alberts-MacBook-Pro.local at Wed Jul  3 22:35:43 2024
Module time:
	user time   =       0.17 seconds =       0.00 minutes
	system time =       0.06 seconds =       0.00 minutes
	total time  =          0 seconds =       0.00 minutes
Total time:
	user time   =       0.17 seconds =       0.00 minutes
	system time =       0.06 seconds =       0.00 minutes
	total time  =          0 seconds =       0.00 minutes

Reading options from the HILBERT block
Calling plugin hilbert.so.


Plugins that use gradients: set Da, Db, and Lagrangian for gradient theory on the wavefunction. The old way of passing these will stop working as soon as 1.8.

        ****************************************************
        *                                                  *
        *    v2RDM-CASSCF                                  *
        *                                                  *
        *    A variational 2-RDM-driven approach to the    *
        *    active space self-consistent field method     *
        *                                                  *
        ****************************************************


        The following papers should be cited when using v2RDM-CASSCF:

        J. Fosso-Tande, D. R. Nascimento, and A. E. DePrince III,
        Mol. Phys. 114, 423-430 (2015).

            URL: http://dx.doi.org/10.1080/00268976.2015.1078008

        J. Fosso-Tande, T.-S. Nguyen, G. Gidofalvi, and
        A. E. DePrince III, J. Chem. Theory Comput. 12, 2260-2271 (2016).

            URL: http://dx.doi.org/10.1021/acs.jctc.6b00190



  ==> Hamiltonian type <==

        molecular

  ==> Convergence parameters <==

        r_convergence:                      1.000e-05
        e_convergence:                      1.000e-05
        cg_convergence:                     1.000e-06
        maxiter:                              1000000
        cg_maxiter:                             10000

  ==> Active space details <==

        Number of frozen core orbitals:             0
        Number of restricted occupied orbitals:     0
        Number of active occupied orbitals:         5
        Number of active virtual orbitals:          2
        Number of restricted virtual orbitals:      1
        Number of frozen virtual orbitals:          0


  ==> Memory requirements <==

        D2:                          0.01 mb
        Q2:                          0.01 mb
        G2:                          0.06 mb

        Total number of variables:          12708
        Total number of constraints:        14863
        Total memory requirements:        1.00 mb

        Irrep:              A 
 
        frozen_docc     [   0 ]
        restricted_docc [   0 ]
        active          [   6 ]
        restricted_uocc [   1 ]
        frozen_uocc     [   0 ]

  ==> Orbital optimization parameters <==

        1-step algorithm:                    true
        g_convergence:                      1.000e-04
        e_convergence:                      1.000e-08
        maximum iterations:                    10
        frequency:                            500
        active-active rotations:            false
        exact diagonal Hessian:              true
        number of DIIS vectors:                 0
        print iteration info:               false
    ==> Transform three-index integrals <==


        Time for integral transformation:     0.00 s

  ==> Active space details <==

        Number of frozen core orbitals:             0
        Number of restricted occupied orbitals:     0
        Number of active orbitals:                  6
        Number of restricted virtual orbitals:      1
        Number of frozen virtual orbitals:          0

        Irrep:              A 
 
        frozen_docc     [   0 ]
        restricted_docc [   0 ]
        active          [   6 ]
        restricted_uocc [   1 ]
        frozen_uocc     [   0 ]

  ==> Orbital optimization parameters <==

        g_convergence:                  1.000e-04
        e_convergence:                  1.000e-08
        maximum iterations:                    10
        exact diagonal Hessian:              true
        print iteration info:               false
        algorithm:                    HAGER_ZHANG
        active-active rotations:            false

    Molecular point group: c1
    Full point group: C2v

    Geometry (in Angstrom), charge = 0, multiplicity = 1:

       Center              X                  Y                   Z               Mass       
    ------------   -----------------  -----------------  -----------------  -----------------
         O            0.000000000000     0.000000000000    -0.061664597388    15.994914619570
         H            0.000000000000    -0.711620616369     0.489330954643     1.007825032230
         H            0.000000000000     0.711620616369     0.489330954643     1.007825032230

  -AO BASIS SET INFORMATION:
    Name                   = STO-3G
    Blend                  = STO-3G
    Total number of shells = 5
    Number of primitives   = 15
    Number of AO           = 7
    Number of SO           = 7
    Maximum AM             = 1
    Spherical Harmonics    = TRUE

  -Contraction Scheme:
    Atom   Type   All Primitives // Shells:
   ------ ------ --------------------------
       1     O     6s 3p // 2s 1p 
       2     H     3s // 1s 
       3     H     3s // 1s 

  ==> AO Basis Functions <==

    [ STO-3G ]
    spherical
    ****
    O   1
    S   3 1.00
                       130.70932000           0.15432897
                        23.80886100           0.53532814
                         6.44360830           0.44463454
    S   3 1.00
                         5.03315130          -0.09996723
                         1.16959610           0.39951283
                         0.38038900           0.70011547
    P   3 1.00
                         5.03315130           0.15591627
                         1.16959610           0.60768372
                         0.38038900           0.39195739
    ****
    H   2
    S   3 1.00
                         3.42525091           0.15432897
                         0.62391373           0.53532814
                         0.16885540           0.44463454
    ****
    H   3
    S   3 1.00
                         3.42525091           0.15432897
                         0.62391373           0.53532814
                         0.16885540           0.44463454
    ****


    initial primal energy:      80.062566335795

      oiter iiter        E(p)        E(d)       E(gap)      mu      eps(p)      eps(d)
          0    39 -242.276956  -40.052808 2.022241e+02   0.100 5.57424e+01 1.42921e+01
          1    26 -241.074740 -107.346529 1.337282e+02   0.100 4.79324e+01 2.76490e+00
          2    25 -159.615526 -113.795630 4.581990e+01   0.100 2.02268e+01 1.49974e+00
          3    25  -99.731088 -107.379757 7.648669e+00   0.100 1.98029e+01 1.25587e+00
          4    24  -81.912666  -95.622543 1.370988e+01   0.100 2.70710e+01 6.03281e-01
          5    25  -92.693796  -88.026494 4.667302e+00   0.100 2.12237e+01 3.60920e-01
          6    26  -98.868922  -86.376952 1.249197e+01   0.100 1.31389e+01 2.87341e-01
          7    26 -103.213718  -86.555386 1.665833e+01   0.100 8.39410e+00 2.14743e-01
          8    26 -102.880609  -86.775866 1.610474e+01   0.100 5.85931e+00 1.57919e-01
          9    26  -99.625775  -86.607573 1.301820e+01   0.100 4.64067e+00 1.31000e-01
         10    26  -95.976717  -86.122733 9.853983e+00   0.100 3.75845e+00 1.18737e-01
         11    26  -93.570107  -85.629717 7.940390e+00   0.100 3.25353e+00 1.04782e-01
         12    26  -92.048807  -85.214062 6.834746e+00   0.100 2.24719e+00 1.06085e-01
         13    25  -91.207143  -85.057365 6.149778e+00   0.100 1.76878e+00 9.62280e-02
         14    25  -90.585221  -84.927190 5.658031e+00   0.100 1.40845e+00 8.65234e-02
         15    25  -90.061473  -84.861824 5.199649e+00   0.100 1.22770e+00 7.52278e-02
         16    25  -89.586539  -84.802776 4.783763e+00   0.100 1.08008e+00 6.91027e-02
         17    25  -89.123344  -84.748320 4.375024e+00   0.100 9.41754e-01 6.69114e-02
         18    25  -88.670640  -84.697387 3.973254e+00   0.100 8.26510e-01 6.47066e-02
         19    25  -88.246627  -84.649064 3.597563e+00   0.100 7.43901e-01 6.07393e-02
         20    25  -87.787584  -84.607479 3.180105e+00   0.100 7.49355e-01 5.24493e-02
         21    25  -87.568200  -84.649036 2.919164e+00   0.100 8.37940e-01 4.17527e-02
         22    25  -87.263613  -84.777687 2.485926e+00   0.100 9.25735e-01 3.14526e-02
         23    25  -86.965248  -84.908046 2.057202e+00   0.100 8.21894e-01 2.73101e-02
         24    25  -86.679514  -84.966266 1.713249e+00   0.100 6.28476e-01 2.55457e-02
         25    25  -86.442484  -84.956394 1.486090e+00   0.100 4.76335e-01 2.04742e-02
         26    25  -86.277842  -84.910116 1.367726e+00   0.100 4.06993e-01 1.39526e-02
         27    26  -86.164459  -84.852157 1.312303e+00   0.100 3.71476e-01 1.09207e-02
         28    26  -86.050298  -84.803935 1.246362e+00   0.100 3.23729e-01 1.09657e-02
         29    25  -85.972129  -84.777540 1.194589e+00   0.100 2.92056e-01 9.98001e-03
         30    25  -85.882865  -84.764025 1.118840e+00   0.100 2.69434e-01 8.19743e-03
         31    25  -85.779373  -84.758325 1.021049e+00   0.100 2.49429e-01 6.58183e-03
         32    26  -85.683615  -84.758200 9.254149e-01   0.100 2.30908e-01 5.63403e-03
         33    26  -85.600377  -84.761953 8.384237e-01   0.100 2.14341e-01 4.86464e-03
         34    26  -85.528872  -84.767379 7.614927e-01   0.100 1.98684e-01 4.23358e-03
         35    26  -85.462481  -84.771332 6.911487e-01   0.100 1.83585e-01 3.97845e-03
         36    26  -85.399251  -84.772325 6.269263e-01   0.100 1.70241e-01 3.78097e-03
         37    26  -85.340379  -84.770291 5.700882e-01   0.100 1.59590e-01 3.36418e-03
         38    26  -85.286517  -84.766221 5.202957e-01   0.100 1.50947e-01 2.91332e-03
         39    26  -85.238669  -84.761529 4.771394e-01   0.100 1.43307e-01 2.50738e-03
         40    26  -85.196689  -84.757366 4.393232e-01   0.100 1.36063e-01 2.23147e-03
         41    26  -85.159204  -84.754360 4.048443e-01   0.100 1.29138e-01 2.09018e-03
         42    26  -85.124763  -84.752751 3.720123e-01   0.100 1.22747e-01 1.98052e-03
         43    26  -85.093219  -84.752418 3.408012e-01   0.100 1.17102e-01 1.86639e-03
         44    26  -85.064536  -84.752993 3.115432e-01   0.100 1.12228e-01 1.72616e-03
         45    26  -85.038389  -84.753825 2.845641e-01   0.100 1.08111e-01 1.56357e-03
         46    26  -85.014414  -84.754421 2.599926e-01   0.100 1.04687e-01 1.42167e-03
         47    27  -84.992427  -84.754495 2.379324e-01   0.100 1.01857e-01 1.29141e-03
         48    26  -84.972538  -84.754073 2.184652e-01   0.100 9.94926e-02 1.16467e-03
         49    27  -84.954369  -84.753280 2.010897e-01   0.100 9.73747e-02 1.05310e-03
         50    27  -84.937783  -84.752277 1.855068e-01   0.100 9.53542e-02 9.61379e-04
         51    27  -84.922429  -84.751267 1.711617e-01   0.100 9.33205e-02 8.93976e-04
         52    28  -84.908008  -84.750420 1.575881e-01   0.100 9.12478e-02 8.51617e-04
         53    30  -84.894769  -84.749825 1.449441e-01   0.100 8.91578e-02 8.21708e-04
         54    30  -84.882439  -84.749487 1.329519e-01   0.100 8.71589e-02 7.92794e-04
         55    30  -84.871199  -84.749400 1.217990e-01   0.100 8.53158e-02 7.60004e-04
         56    30  -84.861077  -84.749467 1.116097e-01   0.100 8.36741e-02 7.23417e-04
         57    30  -84.852011  -84.749595 1.024166e-01   0.100 8.22472e-02 6.83838e-04
         58    31  -84.842364  -84.749699 9.266482e-02   0.100 8.03432e-02 6.66027e-04
         59    31  -84.829484  -84.750133 7.935071e-02   0.100 7.90062e-02 7.99918e-04
         60    29  -84.831296  -84.751234 8.006238e-02   0.100 6.96033e-02 6.56148e-04
         61    30  -84.853789  -84.751673 1.021160e-01   0.100 5.56859e-02 6.98485e-04
         62    29  -84.850536  -84.752115 9.842119e-02   0.100 5.46504e-02 5.48955e-04
         63    31  -84.848696  -84.751295 9.740041e-02   0.100 5.41119e-02 4.80621e-04
         64    30  -84.846617  -84.750162 9.645521e-02   0.100 5.37526e-02 4.12897e-04
         65    31  -84.843763  -84.748978 9.478494e-02   0.100 5.33156e-02 3.71702e-04
         66    30  -84.840072  -84.747944 9.212758e-02   0.100 5.27085e-02 3.67339e-04
         67    30  -84.835767  -84.747184 8.858330e-02   0.100 5.19794e-02 3.86156e-04
         68    31  -84.831139  -84.746738 8.440126e-02   0.100 5.12248e-02 4.08105e-04
         69    30  -84.826507  -84.746582 7.992499e-02   0.100 5.05164e-02 4.22796e-04
         70    30  -84.822197  -84.746659 7.553856e-02   0.100 4.98758e-02 4.21924e-04
         71    30  -84.818278  -84.746862 7.141577e-02   0.100 4.92993e-02 4.06887e-04
         72    31  -84.814818  -84.747092 6.772571e-02   0.100 4.87695e-02 3.83294e-04
         73    30  -84.811895  -84.747285 6.460989e-02   0.100 4.82717e-02 3.53008e-04
         74    30  -84.809487  -84.747408 6.207873e-02   0.100 4.78026e-02 3.20513e-04
         75    31  -84.807531  -84.747448 6.008303e-02   0.100 4.73651e-02 2.91037e-04
         76    31  -84.805944  -84.747408 5.853603e-02   0.100 4.69534e-02 2.69485e-04
         77    31  -84.804624  -84.747306 5.731757e-02   0.100 4.65567e-02 2.58154e-04
         78    31  -84.803479  -84.747163 5.631636e-02   0.100 4.61662e-02 2.55029e-04
         79    30  -84.802435  -84.746999 5.543690e-02   0.100 4.57779e-02 2.55454e-04
         80    30  -84.801440  -84.746830 5.460944e-02   0.100 4.53908e-02 2.55069e-04
         81    31  -84.800462  -84.746669 5.379263e-02   0.100 4.50067e-02 2.51511e-04
         82    31  -84.799484  -84.746520 5.296347e-02   0.100 4.46276e-02 2.44579e-04
         83    30  -84.798498  -84.746386 5.211175e-02   0.100 4.42551e-02 2.35634e-04
         84    31  -84.797513  -84.746266 5.124684e-02   0.100 4.38891e-02 2.26720e-04
         85    30  -84.796534  -84.746159 5.037500e-02   0.100 4.35302e-02 2.19645e-04
         86    32  -84.795562  -84.746064 4.949758e-02   0.100 4.31762e-02 2.15239e-04
         87    32  -84.794624  -84.745977 4.864657e-02   0.100 4.28292e-02 2.13114e-04
         88    30  -84.793708  -84.745899 4.780871e-02   0.100 4.24888e-02 2.12054e-04
         89    30  -84.792854  -84.745829 4.702510e-02   0.100 4.21558e-02 2.10680e-04
         90    32  -84.792054  -84.745764 4.629013e-02   0.100 4.18304e-02 2.08045e-04
         91    30  -84.791292  -84.745700 4.559153e-02   0.100 4.15150e-02 2.03875e-04
         92    32  -84.790614  -84.745641 4.497319e-02   0.100 4.12089e-02 1.98526e-04
         93    30  -84.789990  -84.745579 4.441071e-02   0.100 4.09128e-02 1.92706e-04
         94    32  -84.789428  -84.745519 4.390895e-02   0.100 4.06235e-02 1.87188e-04
         95    31  -84.788307  -84.745455 4.285189e-02   0.100 3.96715e-02 1.96926e-04
         96    31  -84.784905  -84.745551 3.935369e-02   0.100 3.74449e-02 3.53749e-04
         97    31  -84.782710  -84.746142 3.656806e-02   0.100 3.69775e-02 2.44187e-04
         98    30  -84.782195  -84.746059 3.613561e-02   0.100 3.66295e-02 2.09496e-04
         99    31  -84.782509  -84.745850 3.665914e-02   0.100 3.63301e-02 1.92728e-04
        100    31  -84.782974  -84.745585 3.738839e-02   0.100 3.60592e-02 1.81061e-04
        101    32  -84.783221  -84.745310 3.791101e-02   0.100 3.58079e-02 1.69812e-04
        102    32  -84.783150  -84.745046 3.810393e-02   0.100 3.55702e-02 1.62847e-04
        103    32  -84.782819  -84.744813 3.800587e-02   0.100 3.53444e-02 1.61042e-04
        104    32  -84.782328  -84.744627 3.770137e-02   0.100 3.51301e-02 1.61721e-04
        105    32  -84.781758  -84.744496 3.726173e-02   0.100 3.49254e-02 1.62555e-04
        106    32  -84.781170  -84.744421 3.674900e-02   0.100 3.47270e-02 1.62597e-04
        107    32  -84.780606  -84.744392 3.621335e-02   0.100 3.45308e-02 1.61558e-04
        108    32  -84.779770  -84.744396 3.537415e-02   0.100 3.42357e-02 1.69152e-04
        109    32  -84.778650  -84.744572 3.407809e-02   0.100 3.39686e-02 4.41108e-04
        110    27  -84.782672  -84.745779 3.689226e-02   0.100 3.39412e-02 4.33094e-04
        111    29  -84.784095  -84.746917 3.717819e-02   0.100 3.37830e-02 3.74794e-04
        112    30  -84.784614  -84.747386 3.722767e-02   0.100 3.35138e-02 3.49681e-04
        113    30  -84.785502  -84.747147 3.835576e-02   0.100 3.33635e-02 3.28585e-04
        114    31  -84.786959  -84.746454 4.050497e-02   0.100 3.33472e-02 2.79476e-04
        115    30  -84.788451  -84.745578 4.287261e-02   0.100 3.33363e-02 2.15752e-04
        116    30  -84.789394  -84.744719 4.467537e-02   0.100 3.32347e-02 1.63690e-04
        117    31  -84.789516  -84.743981 4.553525e-02   0.100 3.30243e-02 1.43727e-04
        118    32  -84.788876  -84.743405 4.547120e-02   0.100 3.27319e-02 1.56482e-04
        119    32  -84.787701  -84.742997 4.470363e-02   0.100 3.24003e-02 1.82701e-04
        120    30  -84.786257  -84.742754 4.350388e-02   0.100 3.20734e-02 2.05532e-04
        121    30  -84.784764  -84.742663 4.210114e-02   0.100 3.17853e-02 2.16943e-04
        122    30  -84.783347  -84.742705 4.064188e-02   0.100 3.15507e-02 2.14971e-04
        123    31  -84.782098  -84.742854 3.924373e-02   0.100 3.13656e-02 2.01461e-04
        124    31  -84.781074  -84.743075 3.799903e-02   0.100 3.12134e-02 1.80611e-04
        125    32  -84.780312  -84.743333 3.697857e-02   0.100 3.10744e-02 1.57871e-04
        126    30  -84.779847  -84.743588 3.625880e-02   0.100 3.09358e-02 1.38820e-04
        127    32  -84.779660  -84.743816 3.584373e-02   0.100 3.07917e-02 1.27345e-04
        128    31  -84.779725  -84.743988 3.573648e-02   0.100 3.06455e-02 1.23700e-04
        129    32  -84.779961  -84.744094 3.586732e-02   0.100 3.05018e-02 1.24715e-04
        130    31  -84.780326  -84.744126 3.619965e-02   0.100 3.03666e-02 1.26462e-04
        131    32  -84.780719  -84.744088 3.663103e-02   0.100 3.02402e-02 1.26362e-04
        132    31  -84.781094  -84.743987 3.710661e-02   0.100 3.01207e-02 1.23547e-04
        133    32  -84.781384  -84.743840 3.754450e-02   0.100 3.00182e-02 1.53497e-04
        134    30  -84.781294  -84.743910 3.738324e-02   0.100 3.02198e-02 3.53701e-04
        135    29  -84.780560  -84.744547 3.601346e-02   0.100 3.07232e-02 2.96608e-04
        136    30  -84.778466  -84.744853 3.361350e-02   0.100 2.93937e-02 4.31404e-04
        137    25  -84.778367  -84.745240 3.312750e-02   0.100 2.94674e-02 2.90343e-04
        138    27  -84.779162  -84.745346 3.381615e-02   0.100 2.95752e-02 2.63096e-04
        139    28  -84.780464  -84.745161 3.530316e-02   0.100 2.97262e-02 2.42173e-04
        140    30  -84.781797  -84.744778 3.701932e-02   0.100 2.98973e-02 2.11037e-04
        141    30  -84.782729  -84.744275 3.845413e-02   0.100 3.00352e-02 1.66900e-04
        142    30  -84.783140  -84.743744 3.939538e-02   0.100 3.00861e-02 1.20751e-04
        143    32  -84.783076  -84.743228 3.984805e-02   0.100 3.00226e-02 9.06281e-05
        144    32  -84.782669  -84.742759 3.991034e-02   0.100 2.98476e-02 9.26977e-05
        145    32  -84.782036  -84.742362 3.967493e-02   0.100 2.95498e-02 1.69956e-04
        146    30  -84.781457  -84.742089 3.936858e-02   0.100 2.92078e-02 1.57863e-04
        147    30  -84.780745  -84.741907 3.883838e-02   0.100 2.88452e-02 1.65344e-04
        148    30  -84.779855  -84.741824 3.803140e-02   0.100 2.85142e-02 1.71391e-04
        149    31  -84.778887  -84.741829 3.705704e-02   0.100 2.82391e-02 1.70839e-04
        150    30  -84.777968  -84.741906 3.606128e-02   0.100 2.80171e-02 1.61602e-04
        151    30  -84.777190  -84.742039 3.515113e-02   0.100 2.78351e-02 1.47198e-04
        152    31  -84.776613  -84.742212 3.440149e-02   0.100 2.76867e-02 1.26899e-04
        153    32  -84.776219  -84.742408 3.381057e-02   0.100 2.75646e-02 1.06094e-04
        154    32  -84.775965  -84.742608 3.335666e-02   0.100 2.74634e-02 9.02969e-05
        155    32  -84.775878  -84.742790 3.308794e-02   0.100 2.73811e-02 8.28503e-05
        156    32  -84.775932  -84.742939 3.299316e-02   0.100 2.73157e-02 8.40786e-05
        157    32  -84.776123  -84.743044 3.307914e-02   0.100 2.72670e-02 9.00886e-05
        158    32  -84.776385  -84.743102 3.328333e-02   0.100 2.72316e-02 9.64085e-05
        159    32  -84.776691  -84.743109 3.358238e-02   0.100 2.72065e-02 1.00159e-04
        160    32  -84.777002  -84.743068 3.393379e-02   0.100 2.71860e-02 1.00075e-04
        161    32  -84.777275  -84.742985 3.429013e-02   0.100 2.71631e-02 9.61054e-05
        162    32  -84.777486  -84.742868 3.461770e-02   0.100 2.71311e-02 8.91531e-05
        163    32  -84.777614  -84.742728 3.488639e-02   0.100 2.70841e-02 8.09265e-05
        164    31  -84.777659  -84.742573 3.508521e-02   0.100 2.70187e-02 7.37536e-05
        165    32  -84.777609  -84.742417 3.519216e-02   0.100 2.69333e-02 6.99929e-05
        166    30  -84.777468  -84.742267 3.520038e-02   0.100 2.68287e-02 7.07938e-05
        167    32  -84.777256  -84.742133 3.512260e-02   0.100 2.67086e-02 7.52362e-05
        168    31  -84.776975  -84.742021 3.495351e-02   0.100 2.65774e-02 8.11329e-05
        169    32  -84.776647  -84.741935 3.471157e-02   0.100 2.64400e-02 8.63863e-05
        170    30  -84.776302  -84.741877 3.442436e-02   0.100 2.63020e-02 8.96307e-05
        171    32  -84.775942  -84.741847 3.409502e-02   0.100 2.61667e-02 9.02554e-05
        172    30  -84.775590  -84.741842 3.374746e-02   0.100 2.60376e-02 8.82928e-05
        173    32  -84.775286  -84.741859 3.342689e-02   0.100 2.59172e-02 8.42646e-05
        174    30  -84.775007  -84.741892 3.311544e-02   0.100 2.58052e-02 7.90584e-05
        175    32  -84.774802  -84.741935 3.286612e-02   0.100 2.57035e-02 7.37417e-05
        176    30  -84.774646  -84.741984 3.266250e-02   0.100 2.56106e-02 6.93364e-05
        177    32  -84.774550  -84.742031 3.251944e-02   0.100 2.55266e-02 6.65008e-05
        178    30  -84.774516  -84.742071 3.244502e-02   0.100 2.54514e-02 6.53162e-05
        179    32  -84.774510  -84.742100 3.240944e-02   0.100 2.53831e-02 6.53029e-05
        180    31  -84.774539  -84.742115 3.242311e-02   0.100 2.53215e-02 6.57255e-05
        181    32  -84.774597  -84.742114 3.248248e-02   0.100 2.52645e-02 6.59302e-05
        182    30  -84.774664  -84.742096 3.256787e-02   0.100 2.52110e-02 6.55452e-05
        183    32  -84.774313  -84.742062 3.225136e-02   0.100 2.50251e-02 2.30006e-04
        184    27  -84.772868  -84.742630 3.023760e-02   0.100 2.52742e-02 2.81202e-04
        185    29  -84.772042  -84.743075 2.896766e-02   0.100 2.58635e-02 2.58370e-04
        186    27  -84.772076  -84.743239 2.883685e-02   0.100 2.64592e-02 2.08721e-04
        187    27  -84.772799  -84.743203 2.959578e-02   0.100 2.68683e-02 1.79269e-04
        188    29  -84.773743  -84.743054 3.068893e-02   0.100 2.70681e-02 1.73329e-04
        189    31  -84.774571  -84.742855 3.171650e-02   0.100 2.71292e-02 1.64292e-04
        190    31  -84.775095  -84.742617 3.247833e-02   0.100 2.71269e-02 1.41360e-04
        191    31  -84.775333  -84.742358 3.297491e-02   0.100 2.70970e-02 1.10931e-04
        192    31  -84.775340  -84.742081 3.325887e-02   0.100 2.70398e-02 8.48922e-05
        193    32  -84.774326  -84.741800 3.252583e-02   0.100 2.51319e-02 1.73166e-04
        194    30  -84.772005  -84.741739 3.026590e-02   0.100 2.23604e-02 2.43270e-04
        195    31  -84.769866  -84.741900 2.796669e-02   0.100 2.15179e-02 2.35540e-04
        196    31  -84.768379  -84.741953 2.642581e-02   0.100 2.00128e-02 1.83452e-04
        197    30  -84.766323  -84.741999 2.432380e-02   0.100 1.81272e-02 3.17337e-04
        198    26  -84.765264  -84.742319 2.294458e-02   0.100 1.79921e-02 1.67750e-04
        199    29  -84.764986  -84.742359 2.262766e-02   0.100 1.79134e-02 1.44684e-04
        200    30  -84.765070  -84.742354 2.271529e-02   0.100 1.78438e-02 1.29846e-04
        201    30  -84.765218  -84.742316 2.290228e-02   0.100 1.77753e-02 1.20283e-04
        202    31  -84.765352  -84.742241 2.311052e-02   0.100 1.77126e-02 1.13196e-04
        203    31  -84.765458  -84.742127 2.333027e-02   0.100 1.76620e-02 1.04491e-04
        204    31  -84.765532  -84.741983 2.354833e-02   0.100 1.76233e-02 9.15591e-05
        205    31  -84.765558  -84.741821 2.373667e-02   0.100 1.75900e-02 7.54670e-05
        206    30  -84.765519  -84.741652 2.386715e-02   0.100 1.75546e-02 6.06118e-05
        207    30  -84.765410  -84.741485 2.392556e-02   0.100 1.75125e-02 5.26112e-05
        208    30  -84.765236  -84.741326 2.390956e-02   0.100 1.74630e-02 5.35152e-05
        209    30  -84.765006  -84.741183 2.382318e-02   0.100 1.75057e-02 1.93750e-04
        210    25  -84.763980  -84.741526 2.245327e-02   0.100 1.77474e-02 3.07051e-04
        211    26  -84.760847  -84.742038 1.880986e-02   0.100 1.63522e-02 3.97127e-04
        212    26  -84.759205  -84.742572 1.663302e-02   0.100 1.63730e-02 2.97380e-04
        213    26  -84.758604  -84.742877 1.572672e-02   0.100 1.63015e-02 2.33468e-04
        214    26  -84.758910  -84.743067 1.584327e-02   0.100 1.61172e-02 2.25087e-04
        215    27  -84.759676  -84.743180 1.649542e-02   0.100 1.59385e-02 2.47172e-04
        216    27  -84.760475  -84.743229 1.724526e-02   0.100 1.58605e-02 2.57156e-04
        217    26  -84.761070  -84.743207 1.786308e-02   0.100 1.58894e-02 2.49778e-04
        218    27  -84.761360  -84.743106 1.825389e-02   0.100 1.59835e-02 2.33888e-04
        219    26  -84.761428  -84.742932 1.849650e-02   0.100 1.60997e-02 2.14188e-04
        220    27  -84.761326  -84.742694 1.863278e-02   0.100 1.62115e-02 1.89627e-04
        221    27  -84.761162  -84.742410 1.875202e-02   0.100 1.62984e-02 1.59277e-04
        222    27  -84.760981  -84.742097 1.888433e-02   0.100 1.63465e-02 1.25337e-04
        223    29  -84.760787  -84.741770 1.901681e-02   0.100 1.63334e-02 1.11960e-04
        224    31  -84.760642  -84.741468 1.917371e-02   0.100 1.62779e-02 7.80805e-05
        225    30  -84.760510  -84.741176 1.933404e-02   0.100 1.62034e-02 7.48313e-05
        226    31  -84.760344  -84.740915 1.942867e-02   0.100 1.61162e-02 6.34250e-05
        227    31  -84.760078  -84.740669 1.940876e-02   0.100 1.60108e-02 8.02068e-05
        228    31  -84.759725  -84.740453 1.927179e-02   0.100 1.58873e-02 1.02242e-04
        229    27  -84.759332  -84.740268 1.906433e-02   0.100 1.57522e-02 1.22843e-04
        230    27  -84.758925  -84.740132 1.879333e-02   0.100 1.56140e-02 1.39079e-04
        231    27  -84.758531  -84.740037 1.849344e-02   0.100 1.54818e-02 1.49834e-04
        232    27  -84.758164  -84.739988 1.817596e-02   0.100 1.53624e-02 1.54729e-04
        233    27  -84.757833  -84.739985 1.784883e-02   0.100 1.52555e-02 1.57086e-04
        234    27  -84.757608  -84.740039 1.756846e-02   0.100 1.51751e-02 1.47206e-04
        235    27  -84.757382  -84.740121 1.726182e-02   0.100 1.51099e-02 1.35484e-04
        236    27  -84.757166  -84.740233 1.693305e-02   0.100 1.50581e-02 1.19509e-04
        237    29  -84.756978  -84.740371 1.660706e-02   0.100 1.50159e-02 1.00216e-04
        238    30  -84.756851  -84.740530 1.632102e-02   0.100 1.49781e-02 7.88816e-05
        239    30  -84.756783  -84.740696 1.608669e-02   0.100 1.49408e-02 5.73493e-05
        240    30  -84.756774  -84.740871 1.590269e-02   0.100 1.49020e-02 3.92362e-05
        241    30  -84.756811  -84.741046 1.576509e-02   0.100 1.48607e-02 3.26157e-05
        242    30  -84.756884  -84.741212 1.567214e-02   0.100 1.48177e-02 4.18349e-05
        243    30  -84.756988  -84.741363 1.562480e-02   0.100 1.47753e-02 5.76291e-05
        244    27  -84.757113  -84.741490 1.562247e-02   0.100 1.47359e-02 7.34466e-05
        245    29  -84.757249  -84.741599 1.565060e-02   0.100 1.47025e-02 8.68771e-05
        246    29  -84.757394  -84.741674 1.572023e-02   0.100 1.46773e-02 9.69231e-05
        247    29  -84.757540  -84.741717 1.582265e-02   0.100 1.46620e-02 1.03120e-04
        248    27  -84.757685  -84.741728 1.595672e-02   0.100 1.46568e-02 1.05317e-04
        249    29  -84.757814  -84.741709 1.610446e-02   0.100 1.46606e-02 1.03580e-04
        250    27  -84.757932  -84.741658 1.627309e-02   0.100 1.46709e-02 9.81727e-05
        251    29  -84.758023  -84.741583 1.643977e-02   0.100 1.46844e-02 8.95091e-05
        252    29  -84.758091  -84.741483 1.660722e-02   0.100 1.46971e-02 7.81584e-05
        253    28  -84.758132  -84.741366 1.676636e-02   0.100 1.47053e-02 6.48500e-05
        254    29  -84.758143  -84.741236 1.690710e-02   0.100 1.47054e-02 5.05571e-05
        255    29  -84.758124  -84.741097 1.702662e-02   0.100 1.46951e-02 3.68219e-05
        256    27  -84.758079  -84.740956 1.712301e-02   0.100 1.46727e-02 2.68112e-05
        257    28  -84.757998  -84.740818 1.717987e-02   0.100 1.46382e-02 2.58283e-05
        258    28  -84.757896  -84.740686 1.720995e-02   0.100 1.45922e-02 3.37098e-05
        259    29  -84.757769  -84.740567 1.720195e-02   0.100 1.45364e-02 4.46378e-05
        260    30  -84.757621  -84.740465 1.715640e-02   0.100 1.44729e-02 5.52995e-05
        261    27  -84.757477  -84.740372 1.710526e-02   0.100 1.44053e-02 6.43491e-05
        262    28  -84.757318  -84.740308 1.700946e-02   0.100 1.43356e-02 7.11641e-05
        263    27  -84.757163  -84.740262 1.690069e-02   0.100 1.42666e-02 7.54471e-05
        264    29  -84.757007  -84.740240 1.676693e-02   0.100 1.42004e-02 7.70954e-05
        265    28  -84.756863  -84.740237 1.662548e-02   0.100 1.41385e-02 7.61574e-05
        266    29  -84.756732  -84.740255 1.647686e-02   0.100 1.40816e-02 7.28118e-05
        267    28  -84.756620  -84.740291 1.632913e-02   0.100 1.40300e-02 6.73533e-05
        268    29  -84.756526  -84.740342 1.618424e-02   0.100 1.39834e-02 6.01932e-05
        269    29  -84.756455  -84.740406 1.604896e-02   0.100 1.39413e-02 5.18708e-05
        270    29  -84.756405  -84.740479 1.592625e-02   0.100 1.39029e-02 4.31055e-05
        271    30  -84.756375  -84.740560 1.581561e-02   0.100 1.38674e-02 3.49229e-05
        272    27  -84.756373  -84.740634 1.573857e-02   0.100 1.38349e-02 2.88426e-05
        273    29  -84.756384  -84.740716 1.566745e-02   0.100 1.38047e-02 2.66367e-05
        274    27  -84.756416  -84.740789 1.562756e-02   0.100 1.37769e-02 2.87860e-05
        275    28  -84.756457  -84.740855 1.560166e-02   0.100 1.37518e-02 3.36378e-05
        276    27  -84.756514  -84.740910 1.560395e-02   0.100 1.37295e-02 3.92516e-05
        277    27  -84.756578  -84.740953 1.562428e-02   0.100 1.37103e-02 4.43897e-05
        278    28  -84.756640  -84.740983 1.565661e-02   0.100 1.36943e-02 4.83877e-05
        279    29  -84.756704  -84.740998 1.570636e-02   0.100 1.36814e-02 5.09054e-05
        280    29  -84.756766  -84.740997 1.576927e-02   0.100 1.36711e-02 5.17979e-05
        281    27  -84.756826  -84.740982 1.584414e-02   0.100 1.36625e-02 5.10590e-05
        282    29  -84.756871  -84.740955 1.591627e-02   0.100 1.36549e-02 4.87875e-05
        283    27  -84.756910  -84.740914 1.599622e-02   0.100 1.36471e-02 4.51932e-05
        284    29  -84.756930  -84.740864 1.606566e-02   0.100 1.36380e-02 4.05744e-05
        285    27  -84.756941  -84.740804 1.613641e-02   0.100 1.36265e-02 3.53599e-05
        286    29  -84.756931  -84.740740 1.619111e-02   0.100 1.36115e-02 3.01319e-05
        287    27  -84.756913  -84.740671 1.624227e-02   0.100 1.35924e-02 2.60194e-05
        288    27  -84.756880  -84.740601 1.627934e-02   0.100 1.35679e-02 2.35483e-05
        289    29  -84.756828  -84.740533 1.629455e-02   0.100 1.35396e-02 2.31673e-05
        290    27  -84.756771  -84.740467 1.630377e-02   0.100 1.35088e-02 2.56276e-05
        291    27  -84.756706  -84.740408 1.629876e-02   0.100 1.34738e-02 2.92934e-05
        292    29  -84.756627  -84.740355 1.627191e-02   0.100 1.34357e-02 3.30972e-05
        293    27  -84.756549  -84.740310 1.623948e-02   0.100 1.33964e-02 3.67153e-05
        294    27  -84.756470  -84.740275 1.619477e-02   0.100 1.33560e-02 3.95939e-05
        295    29  -84.756382  -84.740250 1.613243e-02   0.100 1.33154e-02 4.15074e-05
        296    27  -84.756304  -84.740234 1.606993e-02   0.100 1.32753e-02 4.23583e-05
        297    29  -84.756224  -84.740229 1.599501e-02   0.100 1.32364e-02 4.21338e-05
        298    27  -84.756156  -84.740232 1.592393e-02   0.100 1.31991e-02 4.09021e-05
        299    27  -84.756095  -84.740244 1.585135e-02   0.100 1.31638e-02 3.87920e-05
        300    27  -84.756042  -84.740263 1.577879e-02   0.100 1.31305e-02 3.59990e-05
        301    29  -84.755992  -84.740289 1.570365e-02   0.100 1.30995e-02 3.27831e-05
        302    27  -84.755959  -84.740317 1.564219e-02   0.100 1.30703e-02 2.94717e-05
        303    29  -84.755932  -84.740350 1.558208e-02   0.100 1.30429e-02 2.64514e-05
        304    27  -84.755919  -84.740382 1.553733e-02   0.100 1.30172e-02 2.41522e-05
        305    27  -84.755916  -84.740415 1.550109e-02   0.100 1.29930e-02 2.29221e-05
        306    29  -84.755914  -84.740446 1.546752e-02   0.100 1.29704e-02 2.28747e-05
        307    27  -84.755924  -84.740473 1.545105e-02   0.100 1.29493e-02 2.38094e-05
        308    27  -84.755939  -84.740496 1.544345e-02   0.100 1.29296e-02 2.53080e-05
        309    27  -84.755957  -84.740513 1.544368e-02   0.100 1.29111e-02 2.69430e-05
        310    27  -84.755976  -84.740525 1.545128e-02   0.100 1.28940e-02 2.83815e-05
        311    27  -84.755995  -84.740530 1.546563e-02   0.100 1.28779e-02 2.94003e-05
        312    27  -84.756013  -84.740528 1.548548e-02   0.100 1.28627e-02 2.98738e-05
        313    27  -84.756029  -84.740520 1.550953e-02   0.100 1.28480e-02 2.97569e-05
        314    29  -84.756036  -84.740505 1.553075e-02   0.100 1.28335e-02 2.90702e-05
        315    27  -84.756045  -84.740484 1.556080e-02   0.100 1.28188e-02 2.78976e-05
        316    27  -84.756049  -84.740459 1.558996e-02   0.100 1.28035e-02 2.63688e-05
        317    27  -84.756046  -84.740430 1.561592e-02   0.100 1.27872e-02 2.46667e-05
        318    27  -84.756035  -84.740397 1.563780e-02   0.100 1.27698e-02 2.30190e-05
        319    27  -84.756017  -84.740363 1.565479e-02   0.100 1.27456e-02 4.14833e-05
        320    27  -84.756052  -84.740350 1.570199e-02   0.100 1.27349e-02 2.63515e-05
        321    27  -84.756080  -84.740315 1.576516e-02   0.100 1.27200e-02 2.41291e-05
        322    27  -84.756071  -84.740279 1.579206e-02   0.100 1.27011e-02 2.27677e-05
        323    27  -84.756025  -84.740245 1.577989e-02   0.100 1.26793e-02 2.26677e-05
        324    27  -84.755957  -84.740212 1.574499e-02   0.100 1.26554e-02 2.32210e-05
        325    27  -84.755887  -84.740181 1.570574e-02   0.100 1.26296e-02 2.40905e-05
        326    29  -84.755822  -84.740155 1.566755e-02   0.100 1.26022e-02 2.51301e-05
        327    27  -84.755777  -84.740132 1.564484e-02   0.100 1.25736e-02 2.60571e-05
        328    28  -84.755744  -84.740117 1.562652e-02   0.100 1.25441e-02 2.66089e-05
        329    29  -84.755709  -84.740108 1.560149e-02   0.100 1.25147e-02 2.67094e-05
        330    27  -84.755681  -84.740104 1.557725e-02   0.100 1.24858e-02 2.64255e-05
        331    27  -84.755652  -84.740105 1.554722e-02   0.100 1.24579e-02 2.58623e-05
        332    29  -84.755615  -84.740110 1.550533e-02   0.100 1.24313e-02 2.50995e-05
        333    27  -84.755583  -84.740116 1.546656e-02   0.100 1.24063e-02 2.41962e-05
        334    29  -84.755549  -84.740125 1.542413e-02   0.100 1.23826e-02 2.32100e-05
        335    27  -84.755524  -84.740134 1.538947e-02   0.100 1.23602e-02 2.22251e-05
        336    27  -84.755503  -84.740144 1.535904e-02   0.100 1.23387e-02 2.13375e-05
        337    29  -84.755481  -84.740154 1.532703e-02   0.100 1.23181e-02 2.06435e-05
        338    27  -84.755469  -84.740163 1.530589e-02   0.100 1.22982e-02 2.02126e-05
        339    27  -84.755462  -84.740172 1.528992e-02   0.100 1.22787e-02 2.00534e-05
        340    27  -84.755457  -84.740179 1.527759e-02   0.100 1.22597e-02 2.01184e-05
        341    29  -84.755449  -84.740185 1.526381e-02   0.100 1.22412e-02 2.03314e-05
        342    27  -84.755448  -84.740188 1.526005e-02   0.100 1.22232e-02 2.06047e-05
        343    28  -84.755448  -84.740190 1.525870e-02   0.100 1.22055e-02 2.08547e-05
        344    27  -84.755448  -84.740189 1.525988e-02   0.100 1.21883e-02 2.10194e-05
        345    27  -84.755447  -84.740185 1.526213e-02   0.100 1.21714e-02 2.10616e-05
        346    27  -84.755444  -84.740178 1.526561e-02   0.100 1.21549e-02 2.09642e-05
        347    27  -84.755438  -84.740169 1.526993e-02   0.100 1.21386e-02 2.07322e-05
        348    27  -84.753767  -84.740156 1.361061e-02   0.100 9.71045e-03 1.94869e-04
        349    26  -84.752307  -84.740579 1.172768e-02   0.100 9.41585e-03 1.38967e-04
        350    26  -84.751749  -84.740669 1.107975e-02   0.100 9.37174e-03 9.30804e-05
        351    26  -84.751770  -84.740665 1.110516e-02   0.100 9.31518e-03 8.25358e-05
        352    26  -84.751951  -84.740686 1.126526e-02   0.100 9.23446e-03 8.48662e-05
        353    26  -84.752070  -84.740707 1.136292e-02   0.100 9.15356e-03 8.39815e-05
        354    26  -84.752081  -84.740703 1.137861e-02   0.100 9.08550e-03 8.09519e-05
        355    27  -84.752016  -84.740670 1.134645e-02   0.100 9.03246e-03 7.72946e-05
        356    26  -84.751931  -84.740610 1.132112e-02   0.100 8.99061e-03 7.23883e-05
        357    26  -84.751844  -84.740537 1.130709e-02   0.100 8.95536e-03 6.58029e-05
        358    27  -84.751785  -84.740454 1.133060e-02   0.100 8.92388e-03 5.78547e-05
        359    26  -84.751745  -84.740363 1.138186e-02   0.100 8.89529e-03 4.93847e-05
        360    27  -84.751710  -84.740271 1.143907e-02   0.100 8.86978e-03 4.17006e-05
        361    27  -84.751667  -84.740176 1.149104e-02   0.100 8.84725e-03 3.62404e-05
        362    27  -84.751607  -84.740083 1.152436e-02   0.100 8.82780e-03 3.38171e-05
        363    27  -84.751529  -84.739993 1.153578e-02   0.100 8.81146e-03 3.39758e-05
        364    27  -84.751436  -84.739909 1.152683e-02   0.100 8.79828e-03 3.55539e-05
        365    27  -84.751333  -84.739832 1.150071e-02   0.100 8.78829e-03 3.76718e-05
        366    27  -84.751226  -84.739764 1.146154e-02   0.100 8.78144e-03 3.99752e-05
        367    27  -84.751119  -84.739707 1.141136e-02   0.100 8.77764e-03 4.23782e-05
        368    26  -84.751017  -84.739662 1.135495e-02   0.100 8.77667e-03 4.48099e-05
        369    27  -84.750921  -84.739631 1.128925e-02   0.100 8.77848e-03 4.71102e-05
        370    26  -84.750835  -84.739611 1.122324e-02   0.100 8.78249e-03 4.90502e-05
        371    26  -84.750758  -84.739606 1.115249e-02   0.100 8.78838e-03 5.03833e-05
        372    26  -84.750693  -84.739611 1.108164e-02   0.100 8.79544e-03 5.08835e-05
        373    26  -84.750640  -84.739627 1.101275e-02   0.100 8.80293e-03 5.03694e-05
        374    26  -84.750597  -84.739651 1.094645e-02   0.100 8.81005e-03 4.87154e-05
        375    26  -84.750566  -84.739682 1.088344e-02   0.100 8.81594e-03 4.58671e-05
        376    26  -84.750536  -84.739718 1.081783e-02   0.100 8.81984e-03 4.18558e-05
        377    26  -84.750526  -84.739758 1.076867e-02   0.100 8.82084e-03 3.68229e-05
        378    26  -84.750517  -84.739799 1.071804e-02   0.100 8.81845e-03 3.10520e-05
        379    26  -84.750513  -84.739840 1.067267e-02   0.100 8.81212e-03 2.50379e-05
        380    26  -84.750513  -84.739881 1.063295e-02   0.100 8.80158e-03 1.96462e-05
        381    26  -84.750518  -84.739919 1.059908e-02   0.100 8.78679e-03 1.63432e-05
        382    26  -84.750526  -84.739955 1.057163e-02   0.100 8.76797e-03 1.65693e-05
        383    26  -84.750538  -84.739987 1.055110e-02   0.100 8.74555e-03 1.97783e-05
        384    26  -84.750552  -84.740015 1.053725e-02   0.100 8.72019e-03 2.41426e-05
        385    26  -84.750568  -84.740038 1.053023e-02   0.100 8.69264e-03 2.83918e-05
        386    26  -84.750586  -84.740056 1.052968e-02   0.100 8.66375e-03 3.18849e-05
        387    26  -84.750603  -84.740068 1.053516e-02   0.100 8.63429e-03 3.43135e-05
        388    26  -84.750620  -84.740074 1.054591e-02   0.100 8.60502e-03 3.55507e-05
        389    26  -84.750634  -84.740073 1.056152e-02   0.100 8.57654e-03 3.55856e-05
        390    26  -84.750647  -84.740066 1.058102e-02   0.100 8.54934e-03 3.44917e-05
        391    26  -84.750655  -84.740052 1.060305e-02   0.100 8.52376e-03 3.24075e-05
        392    26  -84.750659  -84.740032 1.062748e-02   0.100 8.50004e-03 2.95254e-05
        393    26  -84.750659  -84.740006 1.065324e-02   0.100 8.47827e-03 2.60878e-05
        394    27  -84.750654  -84.739976 1.067783e-02   0.100 8.45857e-03 2.24022e-05
        395    26  -84.750644  -84.739940 1.070445e-02   0.100 8.44077e-03 1.88479e-05
        396    26  -84.750629  -84.739902 1.072688e-02   0.100 8.42497e-03 1.59566e-05
        397    27  -84.750608  -84.739862 1.074612e-02   0.100 8.41111e-03 1.43653e-05
        398    26  -84.750585  -84.739820 1.076457e-02   0.100 8.39898e-03 1.44744e-05
        399    26  -84.750556  -84.739779 1.077656e-02   0.100 8.38866e-03 1.60560e-05
        400    26  -84.750523  -84.739739 1.078360e-02   0.100 8.38001e-03 1.84527e-05
        401    26  -84.750488  -84.739702 1.078589e-02   0.100 8.37293e-03 2.10792e-05
        402    26  -84.750451  -84.739668 1.078260e-02   0.100 8.36732e-03 2.35581e-05
        403    26  -84.750413  -84.739639 1.077359e-02   0.100 8.36301e-03 2.56649e-05
        404    26  -84.750375  -84.739615 1.075987e-02   0.100 8.35983e-03 2.72660e-05
        405    26  -84.750338  -84.739597 1.074118e-02   0.100 8.35752e-03 2.82852e-05
        406    26  -84.750303  -84.739585 1.071811e-02   0.100 8.35582e-03 2.86863e-05
        407    26  -84.750270  -84.739579 1.069161e-02   0.100 8.35439e-03 2.84666e-05
        408    26  -84.750242  -84.739579 1.066251e-02   0.100 8.35287e-03 2.76536e-05
        409    26  -84.750217  -84.739585 1.063172e-02   0.100 8.35084e-03 2.63059e-05
        410    26  -84.750197  -84.739597 1.060055e-02   0.100 8.34794e-03 2.45145e-05
        411    26  -84.750177  -84.739613 1.056443e-02   0.100 8.34380e-03 2.24072e-05
        412    26  -84.750171  -84.739633 1.053857e-02   0.100 8.33805e-03 2.01537e-05
        413    26  -84.750166  -84.739655 1.051036e-02   0.100 8.33048e-03 1.79713e-05
        414    26  -84.750164  -84.739679 1.048489e-02   0.100 8.32095e-03 1.61229e-05
        415    26  -84.750166  -84.739704 1.046208e-02   0.100 8.30940e-03 1.48799e-05
        416    26  -84.750172  -84.739728 1.044430e-02   0.100 8.29589e-03 1.44263e-05
        417    26  -84.750180  -84.739750 1.042992e-02   0.100 8.28060e-03 1.47436e-05
        418    26  -84.750190  -84.739770 1.041983e-02   0.100 8.26377e-03 1.56111e-05
        419    26  -84.750202  -84.739786 1.041586e-02   0.100 8.24571e-03 1.67276e-05
        420    26  -84.750212  -84.739798 1.041364e-02   0.100 8.22681e-03 1.78272e-05
        421    26  -84.750222  -84.739806 1.041648e-02   0.100 8.20741e-03 1.87181e-05
        422    26  -84.750231  -84.739809 1.042279e-02   0.100 8.18788e-03 1.92819e-05
        423    26  -84.750239  -84.739807 1.043209e-02   0.100 8.16854e-03 1.94588e-05
        424    26  -84.750244  -84.739800 1.044380e-02   0.100 8.14966e-03 1.92376e-05
        425    26  -84.750246  -84.739789 1.045743e-02   0.100 8.13147e-03 1.86465e-05
        426    26  -84.750245  -84.739774 1.047181e-02   0.100 8.11414e-03 1.77507e-05
        427    26  -84.750241  -84.739755 1.048658e-02   0.100 8.09778e-03 1.66471e-05
        428    26  -84.750234  -84.739734 1.050064e-02   0.100 8.08245e-03 1.54661e-05
        429    26  -84.750224  -84.739710 1.051430e-02   0.100 8.06820e-03 1.43641e-05
        430    26  -84.750211  -84.739685 1.052611e-02   0.100 8.05503e-03 1.35129e-05
        431    26  -84.750195  -84.739660 1.053544e-02   0.100 8.04293e-03 1.30609e-05
        432    26  -84.750177  -84.739635 1.054273e-02   0.100 8.03186e-03 1.30858e-05
        433    26  -84.750157  -84.739610 1.054672e-02   0.100 8.02177e-03 1.35561e-05
        434    26  -84.750136  -84.739588 1.054797e-02   0.100 8.01262e-03 1.43526e-05
        435    26  -84.750113  -84.739567 1.054651e-02   0.100 8.00433e-03 1.53175e-05
        436    26  -84.750090  -84.739548 1.054180e-02   0.100 7.99682e-03 1.63038e-05
        437    26  -84.750067  -84.739533 1.053439e-02   0.100 7.98997e-03 1.71927e-05
        438    26  -84.750045  -84.739520 1.052456e-02   0.100 7.98366e-03 1.79001e-05
        439    26  -84.750023  -84.739511 1.051229e-02   0.100 7.97775e-03 1.83710e-05
        440    26  -84.750003  -84.739505 1.049836e-02   0.100 7.97208e-03 1.85773e-05
        441    26  -84.749984  -84.739501 1.048275e-02   0.100 7.96648e-03 1.85123e-05
        442    26  -84.749967  -84.739501 1.046618e-02   0.100 7.96078e-03 1.81904e-05
        443    26  -84.749952  -84.739503 1.044903e-02   0.100 7.95479e-03 1.76424e-05
        444    26  -84.749939  -84.739507 1.043195e-02   0.100 7.94837e-03 1.69169e-05
        445    26  -84.749927  -84.739513 1.041495e-02   0.100 7.94137e-03 1.60757e-05
        446    26  -84.749918  -84.739520 1.039865e-02   0.100 7.93366e-03 1.51940e-05
        447    26  -84.749911  -84.739528 1.038330e-02   0.100 7.92517e-03 1.43532e-05
        448    26  -84.749906  -84.739537 1.036928e-02   0.100 7.91583e-03 1.36352e-05
        449    26  -84.749902  -84.739545 1.035681e-02   0.100 7.90565e-03 1.31072e-05
        450    26  -84.749899  -84.739554 1.034592e-02   0.100 7.89464e-03 1.28092e-05
        451    26  -84.749898  -84.739561 1.033695e-02   0.100 7.88286e-03 1.27401e-05
        452    26  -84.749897  -84.739568 1.032986e-02   0.100 7.87039e-03 1.28612e-05
        453    26  -84.749897  -84.739573 1.032458e-02   0.100 7.85736e-03 1.31058e-05
        454    26  -84.749897  -84.739576 1.032125e-02   0.100 7.84388e-03 1.33997e-05
        455    26  -84.749897  -84.739577 1.031948e-02   0.100 7.83010e-03 1.36736e-05
        456    26  -84.749896  -84.739577 1.031921e-02   0.100 7.81616e-03 1.38744e-05
        457    26  -84.749895  -84.739575 1.032036e-02   0.100 7.80219e-03 1.39665e-05
        458    26  -84.749893  -84.739571 1.032216e-02   0.100 7.78833e-03 1.39343e-05
        459    26  -84.749890  -84.739564 1.032552e-02   0.100 7.77468e-03 1.37793e-05
        460    26  -84.749886  -84.739556 1.032917e-02   0.100 7.76136e-03 1.35201e-05
        461    26  -84.749880  -84.739547 1.033321e-02   0.100 7.74843e-03 1.31883e-05
        462    26  -84.749875  -84.739536 1.033935e-02   0.100 7.73596e-03 1.28272e-05
        463    26  -84.749865  -84.739524 1.034096e-02   0.100 7.72402e-03 1.24851e-05
        464    26  -84.749855  -84.739511 1.034412e-02   0.100 7.71260e-03 1.22114e-05
        465    26  -84.749844  -84.739497 1.034643e-02   0.100 7.70175e-03 1.20459e-05
        466    26  -84.749832  -84.739484 1.034816e-02   0.100 7.69144e-03 1.20137e-05
        467    26  -84.749818  -84.739470 1.034855e-02   0.100 7.68168e-03 1.21171e-05
        468    26  -84.749805  -84.739457 1.034795e-02   0.100 7.67242e-03 1.23386e-05
        469    26  -84.749790  -84.739444 1.034603e-02   0.100 7.66365e-03 1.26433e-05
        470    26  -84.749771  -84.739432 1.033888e-02   0.100 7.65533e-03 1.29891e-05
        471    26  -84.749759  -84.739421 1.033789e-02   0.100 7.64735e-03 1.33324e-05
        472    26  -84.749744  -84.739412 1.033191e-02   0.100 7.63969e-03 1.36356e-05
        473    26  -84.749728  -84.739404 1.032457e-02   0.100 7.63227e-03 1.38685e-05
        474    26  -84.749714  -84.739397 1.031665e-02   0.100 7.62501e-03 1.40113e-05
        475    26  -84.749700  -84.739392 1.030746e-02   0.100 7.61783e-03 1.40535e-05
        476    26  -84.749686  -84.739388 1.029771e-02   0.100 7.61064e-03 1.39951e-05
        477    26  -84.749673  -84.739386 1.028725e-02   0.100 7.60336e-03 1.38437e-05
        478    26  -84.749662  -84.739385 1.027652e-02   0.100 7.59591e-03 1.36152e-05
        479    26  -84.749651  -84.739385 1.026578e-02   0.100 7.58822e-03 1.33306e-05
        480    26  -84.749641  -84.739386 1.025494e-02   0.100 7.58024e-03 1.30156e-05
        481    26  -84.749633  -84.739388 1.024456e-02   0.100 7.57191e-03 1.26966e-05
        482    26  -84.749625  -84.739391 1.023453e-02   0.100 7.56320e-03 1.23992e-05
        483    26  -84.749618  -84.739393 1.022509e-02   0.100 7.55410e-03 1.21443e-05
        484    26  -84.749614  -84.739396 1.021782e-02   0.100 7.54460e-03 1.19463e-05
        485    26  -84.749607  -84.739398 1.020885e-02   0.100 7.53474e-03 1.18103e-05
        486    26  -84.749602  -84.739400 1.020209e-02   0.100 7.52453e-03 1.17334e-05
        487    26  -84.749598  -84.739402 1.019620e-02   0.100 7.51402e-03 1.17044e-05
        488    26  -84.749594  -84.739403 1.019139e-02   0.100 7.50327e-03 1.17077e-05
        489    26  -84.749590  -84.739402 1.018749e-02   0.100 7.49232e-03 1.17255e-05
        490    26  -84.749586  -84.739401 1.018451e-02   0.100 7.48126e-03 1.17415e-05
        491    26  -84.749581  -84.739399 1.018223e-02   0.100 7.47014e-03 1.17424e-05
        492    26  -84.749577  -84.739396 1.018073e-02   0.100 7.45903e-03 1.17203e-05
        493    26  -84.749571  -84.739391 1.017991e-02   0.100 7.44800e-03 1.16721e-05
        494    26  -84.749565  -84.739386 1.017930e-02   0.100 7.43709e-03 1.16007e-05
        495    26  -84.749559  -84.739380 1.017914e-02   0.100 7.42636e-03 1.15131e-05
        496    26  -84.749551  -84.739373 1.017881e-02   0.100 7.41584e-03 1.14201e-05
        497    26  -84.749543  -84.739365 1.017862e-02   0.100 7.40558e-03 1.13340e-05
        498    26  -84.749534  -84.739357 1.017781e-02   0.100 7.39559e-03 1.12671e-05
        499    26  -84.749525  -84.739348 1.017755e-02   0.100 7.38589e-03 1.12296e-05

        ==> Orbital Optimization <==


        iter       Energy        dE       |g|     r
           0   -84.749529 -3.18e-06  5.54e-03 1.000
           1   -84.749529 -1.23e-07  6.81e-04 0.700
           2   -84.749529 -4.23e-08  2.74e-04 0.490
           3   -84.749529 -3.36e-08  1.67e-04 0.588
           4   -84.749529 -2.54e-08  9.69e-05 0.706

            Orbital Optimization did not converge in   5 iterations 
            Total energy change: -3.404825e-06
            Final gradient norm: 9.687012e-05

            Total energy:     -74.970122597354


    initial primal energy:     -84.749528780207

      oiter iiter        E(p)        E(d)       E(gap)      mu      eps(p)      eps(d)
        500    48  -84.749073  -84.734592 1.448138e-02  65.772 6.46122e-03 1.43593e-01
        501    35  -84.747728  -84.985323 2.375955e-01  65.772 5.81354e-03 1.59808e-01
        502    40  -84.746215  -85.253782 5.075670e-01  65.772 5.28702e-03 1.72612e-01
        503    36  -84.744793  -85.461341 7.165474e-01  65.772 4.74543e-03 1.79389e-01
        504    32  -84.743566  -85.621592 8.780260e-01  65.772 4.09596e-03 1.94519e-01
        505    32  -84.742486  -85.743021 1.000535e+00  65.772 3.33185e-03 2.14748e-01
        506    32  -84.741470  -85.831636 1.090166e+00  65.772 2.52703e-03 2.31099e-01
        507    32  -84.740456  -85.889554 1.149098e+00  65.772 1.77431e-03 2.39399e-01
        508    32  -84.739429  -85.918410 1.178981e+00  65.772 1.21889e-03 2.39275e-01
        509    37  -84.738476  -85.926345 1.187869e+00  65.772 1.10074e-03 2.31720e-01
        510    37  -84.737605  -85.903081 1.165476e+00  65.772 1.44210e-03 2.18151e-01
        511    37  -84.736774  -85.845802 1.109028e+00  65.772 1.96016e-03 1.99176e-01
        512    36  -84.735933  -85.754122 1.018189e+00  65.772 2.48984e-03 1.75539e-01
        513    37  -84.735061  -85.632672 8.976113e-01  65.772 2.97176e-03 1.48129e-01
        514    37  -84.734171  -85.481345 7.471740e-01  65.772 3.37203e-03 1.18381e-01
        515    36  -84.733317  -85.304887 5.715701e-01  65.772 3.66987e-03 8.78507e-02
        516    35  -84.732577  -85.110500 3.779230e-01  65.772 3.85225e-03 5.99648e-02
        517    35  -84.732069  -84.911160 1.790912e-01  65.772 3.91805e-03 3.99533e-02
        518    32  -84.731842  -84.708961 2.288177e-02  65.772 3.86636e-03 4.35100e-02
        519    32  -84.731957  -84.517064 2.148932e-01  65.772 3.70354e-03 6.33106e-02
        520    33  -84.732367  -84.338196 3.941704e-01  65.772 3.43754e-03 8.58362e-02
        521    33  -84.733004  -84.180540 5.524647e-01  65.772 3.04454e-03 1.07215e-01
        522    32  -84.733840  -84.048767 6.850722e-01  65.772 2.46724e-03 1.25476e-01
        523    33  -84.734751  -83.946734 7.880174e-01  65.772 1.77702e-03 1.35954e-01
        524    32  -84.735508  -83.896590 8.389185e-01  65.772 1.12375e-03 1.41313e-01
        525    32  -84.736098  -83.888943 8.471546e-01  65.772 7.15379e-04 1.40926e-01
        526    32  -84.736588  -83.910968 8.256196e-01  65.772 7.00559e-04 1.36307e-01
        527    37  -84.737033  -83.946629 7.904035e-01  65.772 8.60716e-04 1.29472e-01
        528    36  -84.737495  -83.987147 7.503479e-01  65.772 1.03373e-03 1.20413e-01
        529    37  -84.738026  -84.032116 7.059096e-01  65.772 1.21605e-03 1.08857e-01
        530    35  -84.738604  -84.083785 6.548190e-01  65.772 1.38853e-03 9.56862e-02
        531    35  -84.739141  -84.144435 5.947053e-01  65.772 1.54026e-03 8.25041e-02
        532    35  -84.739560  -84.218415 5.211449e-01  65.772 1.66257e-03 7.06193e-02
        533    37  -84.739805  -84.301807 4.379985e-01  65.772 1.75095e-03 6.14536e-02
        534    41  -84.739867  -84.390807 3.490592e-01  65.772 1.80210e-03 5.62402e-02
        535    40  -84.739765  -84.480181 2.595840e-01  65.772 1.81583e-03 5.52272e-02
        536    36  -84.739552  -84.566611 1.729406e-01  65.772 1.79764e-03 5.69034e-02
        537    36  -84.739314  -84.650250 8.906439e-02  65.772 1.74535e-03 6.04624e-02
        538    36  -84.739063  -84.732873 6.190554e-03  65.772 1.65451e-03 6.55974e-02
        539    37  -84.738800  -84.813317 7.451630e-02  65.772 1.53346e-03 7.04337e-02
        540    35  -84.738539  -84.890862 1.523232e-01  65.772 1.39214e-03 7.35989e-02
        541    32  -84.738278  -84.960967 2.226890e-01  65.772 1.24447e-03 7.50397e-02
        542    32  -84.738017  -85.023354 2.853367e-01  65.772 1.09728e-03 7.48837e-02
        543    32  -84.737757  -85.074669 3.369119e-01  65.772 9.61114e-04 7.36813e-02
        544    32  -84.737500  -85.114215 3.767147e-01  65.772 8.48224e-04 7.16430e-02
        545    32  -84.737245  -85.141561 4.043161e-01  65.772 7.70150e-04 6.90755e-02
        546    32  -84.736986  -85.156452 4.194659e-01  65.772 7.36097e-04 6.62815e-02
        547    32  -84.736724  -85.158504 4.217797e-01  65.772 7.48663e-04 6.34662e-02
        548    32  -84.736462  -85.147526 4.110639e-01  65.772 8.00532e-04 6.07282e-02
        549    35  -84.736209  -85.123894 3.876859e-01  65.772 8.77966e-04 5.80712e-02
        550    36  -84.735976  -85.088346 3.523705e-01  65.772 9.66947e-04 5.54308e-02
        551    35  -84.735778  -85.042258 3.064800e-01  65.772 1.05609e-03 5.27196e-02
        552    36  -84.735625  -84.987374 2.517494e-01  65.772 1.13685e-03 4.98818e-02
        553    35  -84.735528  -84.925711 1.901831e-01  65.772 1.20289e-03 4.69377e-02
        554    35  -84.735488  -84.859481 1.239925e-01  65.772 1.24958e-03 4.40051e-02
        555    30  -84.735506  -84.790816 5.530932e-02  65.772 1.27369e-03 4.12974e-02
        556    30  -84.735576  -84.722104 1.347119e-02  65.772 1.27331e-03 3.90973e-02
        557    30  -84.735687  -84.655128 8.055872e-02  65.772 1.24763e-03 3.77001e-02
        558    33  -84.735831  -84.591795 1.440356e-01  65.772 1.19689e-03 3.73233e-02
        559    32  -84.735996  -84.533666 2.023300e-01  65.772 1.12235e-03 3.80137e-02
        560    30  -84.736174  -84.482146 2.540285e-01  65.772 1.02616e-03 3.96127e-02
        561    30  -84.736358  -84.438364 2.979941e-01  65.772 9.11594e-04 4.18063e-02
        562    30  -84.736543  -84.403203 3.333394e-01  65.772 7.83278e-04 4.42166e-02
        563    32  -84.736724  -84.377337 3.593870e-01  65.772 6.47961e-04 4.64766e-02
        564    31  -84.736900  -84.361182 3.757174e-01  65.772 5.10992e-04 4.83200e-02
        565    32  -84.737068  -84.355774 3.812931e-01  65.772 3.96473e-04 4.94216e-02
        566    35  -84.737228  -84.361085 3.761430e-01  65.772 3.43347e-04 4.92202e-02
        567    40  -84.737389  -84.374352 3.630379e-01  65.772 3.71331e-04 4.81759e-02
        568    40  -84.737548  -84.396575 3.409740e-01  65.772 4.55211e-04 4.62243e-02
        569    39  -84.737696  -84.428018 3.096786e-01  65.772 5.58680e-04 4.33347e-02
        570    41  -84.737814  -84.466327 2.714870e-01  65.772 6.60687e-04 3.96841e-02
        571    40  -84.737895  -84.510603 2.272920e-01  65.772 7.51659e-04 3.53540e-02
        572    36  -84.737941  -84.559378 1.785631e-01  65.772 8.24879e-04 3.05890e-02
        573    35  -84.737959  -84.610775 1.271844e-01  65.772 8.75863e-04 2.58921e-02
        574    35  -84.737956  -84.663253 7.470308e-02  65.772 9.02023e-04 2.19175e-02
        575    35  -84.737934  -84.715506 2.242839e-02  65.772 9.02202e-04 1.95487e-02
        576    35  -84.737895  -84.766135 2.823954e-02  65.772 8.76488e-04 1.95033e-02
        577    35  -84.737838  -84.813801 7.596288e-02  65.772 8.26067e-04 2.16125e-02
        578    35  -84.737761  -84.857192 1.194310e-01  65.772 7.53108e-04 2.49624e-02
        579    30  -84.737665  -84.895187 1.575221e-01  65.772 6.60645e-04 2.86586e-02
        580    30  -84.737552  -84.926707 1.891553e-01  65.772 5.52566e-04 3.21059e-02
        581    30  -84.737426  -84.951120 2.136941e-01  65.772 4.33867e-04 3.49463e-02
        582    31  -84.737291  -84.967907 2.306165e-01  65.772 3.11902e-04 3.69706e-02
        583    31  -84.737153  -84.976843 2.396905e-01  65.772 2.02245e-04 3.80661e-02
        584    32  -84.737016  -84.977946 2.409297e-01  65.772 1.52072e-04 3.81898e-02
        585    37  -84.736886  -84.971463 2.345772e-01  65.772 2.08210e-04 3.73528e-02
        586    39  -84.736765  -84.957831 2.210667e-01  65.772 3.10992e-04 3.56115e-02
        587    40  -84.736656  -84.937704 2.010485e-01  65.772 4.18223e-04 3.30624e-02
        588    36  -84.736561  -84.911867 1.753056e-01  65.772 5.17024e-04 2.98403e-02
        589    35  -84.736481  -84.881198 1.447166e-01  65.772 6.01953e-04 2.61221e-02
        590    35  -84.736418  -84.846736 1.103179e-01  65.772 6.69911e-04 2.21418e-02
        591    35  -84.736372  -84.809555 7.318282e-02  65.772 7.19010e-04 1.82283e-02
        592    34  -84.736344  -84.770773 3.442958e-02  65.772 7.48218e-04 1.48826e-02
        593    30  -84.736333  -84.731468 4.864657e-03  65.772 7.57210e-04 1.28401e-02
        594    30  -84.736340  -84.692855 4.348526e-02  65.772 7.46336e-04 1.27624e-02
        595    31  -84.736365  -84.655888 8.047720e-02  65.772 7.16528e-04 1.44898e-02
        596    30  -84.736407  -84.621580 1.148265e-01  65.772 6.69279e-04 1.71915e-02
        597    30  -84.736465  -84.590813 1.456519e-01  65.772 6.06552e-04 2.01412e-02
        598    30  -84.736537  -84.564350 1.721871e-01  65.772 5.30795e-04 2.29061e-02
        599    31  -84.736621  -84.542809 1.938126e-01  65.772 4.44884e-04 2.52427e-02
        600    29  -84.736716  -84.526652 2.100639e-01  65.772 3.52231e-04 2.70120e-02
        601    29  -84.736817  -84.516186 2.206313e-01  65.772 2.57345e-04 2.81379e-02
        602    30  -84.736923  -84.511535 2.253882e-01  65.772 1.68179e-04 2.85883e-02
        603    32  -84.737030  -84.512663 2.243671e-01  65.772 1.08355e-04 2.83649e-02
        604    39  -84.737135  -84.519365 2.177706e-01  65.772 1.25260e-04 2.74989e-02
        605    40  -84.737236  -84.531297 2.059395e-01  65.772 1.92644e-04 2.60478e-02
        606    40  -84.737330  -84.547959 1.893704e-01  65.772 2.67106e-04 2.40945e-02
        607    41  -84.737413  -84.568744 1.686693e-01  65.772 3.35753e-04 2.17493e-02
        608    40  -84.737485  -84.592942 1.445428e-01  65.772 3.94041e-04 1.91556e-02
        609    36  -84.737543  -84.619762 1.177810e-01  65.772 4.39706e-04 1.65042e-02
        610    35  -84.737587  -84.648409 8.917793e-02  65.772 4.71450e-04 1.40581e-02
        611    35  -84.737615  -84.677992 5.962288e-02  65.772 4.88630e-04 1.21775e-02
        612    35  -84.737627  -84.707681 2.994617e-02  65.772 4.91125e-04 1.12676e-02
        613    35  -84.737624  -84.736640 9.841896e-04  65.772 4.79290e-04 1.15375e-02
        614    35  -84.737606  -84.764093 2.648740e-02  65.772 4.53904e-04 1.27818e-02
        615    35  -84.737573  -84.789332 5.175844e-02  65.772 4.16149e-04 1.45615e-02
        616    35  -84.737528  -84.811728 7.420058e-02  65.772 3.67580e-04 1.64868e-02
        617    35  -84.737471  -84.830756 9.328503e-02  65.772 3.10164e-04 1.82946e-02
        618    35  -84.737405  -84.845993 1.085883e-01  65.772 2.46391e-04 1.98197e-02
        619    35  -84.737332  -84.857147 1.198149e-01  65.772 1.79857e-04 2.09605e-02
        620    30  -84.737253  -84.864038 1.267851e-01  65.772 1.17883e-04 2.16577e-02
        621    32  -84.737172  -84.866590 1.294180e-01  65.772 8.32400e-05 2.18831e-02
        622    32  -84.737090  -84.864897 1.278070e-01  65.772 1.08214e-04 2.16342e-02
        623    30  -84.737009  -84.859122 1.221123e-01  65.772 1.64991e-04 2.09303e-02
        624    33  -84.736933  -84.849560 1.126266e-01  65.772 2.26581e-04 1.98117e-02
        625    31  -84.736863  -84.836583 9.971979e-02  65.772 2.84777e-04 1.83396e-02
        626    34  -84.736801  -84.820677 8.387580e-02  65.772 3.36252e-04 1.65981e-02
        627    34  -84.736749  -84.802331 6.558232e-02  65.772 3.79091e-04 1.46993e-02
        628    30  -84.736707  -84.782142 4.543482e-02  65.772 4.12058e-04 1.27950e-02
        629    34  -84.736677  -84.760777 2.410071e-02  65.772 4.34359e-04 1.10912e-02
        630    30  -84.736659  -84.738758 2.098458e-03  65.772 4.45621e-04 9.85353e-03
        631    30  -84.736654  -84.716819 1.983501e-02  65.772 4.45805e-04 9.34444e-03
        632    30  -84.736661  -84.695502 4.115878e-02  65.772 4.35210e-04 9.65790e-03
        633    31  -84.736681  -84.675394 6.128649e-02  65.772 4.14437e-04 1.06250e-02
        634    30  -84.736711  -84.657016 7.969478e-02  65.772 3.84399e-04 1.19480e-02
        635    30  -84.736752  -84.640826 9.592539e-02  65.772 3.46263e-04 1.33625e-02
        636    31  -84.736801  -84.627204 1.095967e-01  65.772 3.01430e-04 1.46832e-02
        637    30  -84.736857  -84.616457 1.203996e-01  65.772 2.51598e-04 1.57900e-02
        638    30  -84.736919  -84.608795 1.281238e-01  65.772 1.98783e-04 1.66074e-02
        639    31  -84.736984  -84.604348 1.326360e-01  65.772 1.45817e-04 1.70918e-02
        640    30  -84.737051  -84.603138 1.339128e-01  65.772 9.78824e-05 1.72238e-02
        641    30  -84.737118  -84.605113 1.320043e-01  65.772 6.89449e-05 1.70041e-02
        642    34  -84.737182  -84.610125 1.270573e-01  65.772 7.94999e-05 1.64515e-02
        643    40  -84.737243  -84.617961 1.192818e-01  65.772 1.14815e-04 1.56018e-02
        644    39  -84.737298  -84.628311 1.089869e-01  65.772 1.54167e-04 1.45082e-02
        645    39  -84.737347  -84.640829 9.651805e-02  65.772 1.90350e-04 1.32429e-02
        646    35  -84.737388  -84.655101 8.228668e-02  65.772 2.20659e-04 1.19011e-02
        647    35  -84.737420  -84.670701 6.671887e-02  65.772 2.43759e-04 1.06057e-02
        648    35  -84.737442  -84.687152 5.029071e-02  65.772 2.58925e-04 9.51027e-03
        649    35  -84.737455  -84.703975 3.347990e-02  65.772 2.65832e-04 8.78364e-03
        650    35  -84.737458  -84.720703 1.675478e-02  65.772 2.64473e-04 8.55493e-03
        651    35  -84.737451  -84.736880 5.717192e-04  65.772 2.55123e-04 8.83701e-03
        652    35  -84.737436  -84.752076 1.464042e-02  65.772 2.38320e-04 9.51226e-03
        653    35  -84.737411  -84.765901 2.848987e-02  65.772 2.14859e-04 1.04041e-02
        654    35  -84.737380  -84.778020 4.064067e-02  65.772 1.85807e-04 1.13496e-02
        655    35  -84.737342  -84.788151 5.080893e-02  65.772 1.52599e-04 1.22258e-02
        656    35  -84.737299  -84.796073 5.877365e-02  65.772 1.17353e-04 1.29483e-02
        657    35  -84.737253  -84.801633 6.438039e-02  65.772 8.40724e-05 1.34626e-02
        658    33  -84.737204  -84.804755 6.755081e-02  65.772 6.25795e-05 1.37372e-02
        659    30  -84.737154  -84.805415 6.826066e-02  65.772 6.81227e-05 1.37592e-02
        660    30  -84.737106  -84.803683 6.657670e-02  65.772 9.55603e-05 1.35314e-02
        661    31  -84.737059  -84.799671 6.261173e-02  65.772 1.29897e-04 1.30707e-02
        662    30  -84.737016  -84.793559 5.654279e-02  65.772 1.64353e-04 1.24075e-02
        663    30  -84.736977  -84.785583 4.860617e-02  65.772 1.96134e-04 1.15858e-02
        664    31  -84.736944  -84.776015 3.907148e-02  65.772 2.23719e-04 1.06644e-02
        665    31  -84.736917  -84.765169 2.825179e-02  65.772 2.46146e-04 9.71828e-03
        666    31  -84.736897  -84.753381 1.648483e-02  65.772 2.62791e-04 8.83999e-03
        667    30  -84.736884  -84.741007 4.123524e-03  65.772 2.73274e-04 8.13520e-03
        668    31  -84.736878  -84.728405 8.472702e-03  65.772 2.77436e-04 7.70503e-03
        669    30  -84.736880  -84.715933 2.094706e-02  65.772 2.75337e-04 7.61076e-03
        670    31  -84.736889  -84.703929 3.295997e-02  65.772 2.67206e-04 7.84141e-03
        671    31  -84.736904  -84.692716 4.418792e-02  65.772 2.53487e-04 8.31776e-03
        672    30  -84.736926  -84.682579 5.434661e-02  65.772 2.34758e-04 8.93052e-03
        673    31  -84.736953  -84.673769 6.318366e-02  65.772 2.11764e-04 9.57611e-03
        674    30  -84.736984  -84.666494 7.048980e-02  65.772 1.85429e-04 1.01724e-02
        675    31  -84.737019  -84.660911 7.610784e-02  65.772 1.56750e-04 1.06646e-02
        676    30  -84.737056  -84.657128 7.992848e-02  65.772 1.26914e-04 1.09989e-02
        677    29  -84.737095  -84.655265 8.183042e-02  65.772 9.83638e-05 1.11675e-02
        678    30  -84.737134  -84.655243 8.189133e-02  65.772 7.43081e-05 1.11577e-02
        679    29  -84.737172  -84.656994 8.017789e-02  65.772 6.02112e-05 1.09737e-02
        680    30  -84.737208  -84.660429 7.677915e-02  65.772 6.13685e-05 1.06300e-02
        681    34  -84.737241  -84.665412 7.182887e-02  65.772 7.45101e-05 1.01516e-02
        682    35  -84.737270  -84.671780 6.549068e-02  65.772 9.19752e-05 9.57312e-03
        683    39  -84.737295  -84.679312 5.798315e-02  65.772 1.09124e-04 8.93995e-03
        684    40  -84.737316  -84.687778 4.953776e-02  65.772 1.23755e-04 8.30811e-03
        685    39  -84.737331  -84.696937 4.039464e-02  65.772 1.34714e-04 7.74232e-03
        686    40  -84.737342  -84.706508 3.083348e-02  65.772 1.41446e-04 7.30823e-03
        687    40  -84.737347  -84.716215 2.113202e-02  65.772 1.43710e-04 7.05977e-03
        688    40  -84.737346  -84.725784 1.156185e-02  65.772 1.41542e-04 7.02209e-03
        689    35  -84.737340  -84.734954 2.386306e-03  65.772 1.35168e-04 7.18085e-03
        690    35  -84.737329  -84.743496 6.167461e-03  65.772 1.25009e-04 7.48776e-03
        691    35  -84.737313  -84.751182 1.386892e-02  65.772 1.11716e-04 7.87827e-03
        692    35  -84.737293  -84.757827 2.053473e-02  65.772 9.62541e-05 8.28854e-03
        693    35  -84.737270  -84.763283 2.601395e-02  65.772 8.01205e-05 8.66493e-03
        694    30  -84.737244  -84.767440 3.019610e-02  65.772 6.58512e-05 8.96697e-03
        695    30  -84.737217  -84.770211 3.299470e-02  65.772 5.75961e-05 9.16696e-03
        696    30  -84.737189  -84.771578 3.438943e-02  65.772 5.94979e-05 9.24878e-03
        697    30  -84.737161  -84.771542 3.438140e-02  65.772 7.10038e-05 9.20659e-03
        698    29  -84.737134  -84.770149 3.301506e-02  65.772 8.78614e-05 9.04374e-03
        699    30  -84.737109  -84.767476 3.036707e-02  65.772 1.06505e-04 8.77209e-03
        700    31  -84.737085  -84.763635 2.654907e-02  65.772 1.24840e-04 8.41153e-03
        701    30  -84.737065  -84.758767 2.170196e-02  65.772 1.41605e-04 7.98956e-03
        702    29  -84.737047  -84.753042 1.599411e-02  65.772 1.56006e-04 7.54084e-03
        703    30  -84.737034  -84.746637 9.603366e-03  65.772 1.67486e-04 7.10592e-03
        704    31  -84.737024  -84.739756 2.731709e-03  65.772 1.75607e-04 6.73988e-03
        705    31  -84.737019  -84.732595 4.423175e-03  65.772 1.79859e-04 6.45415e-03
        706    31  -84.737017  -84.725461 1.155631e-02  65.772 1.80864e-04 6.30317e-03
        707    30  -84.737020  -84.718442 1.857807e-02  65.772 1.78622e-04 6.28836e-03
        708    31  -84.737027  -84.711725 2.530200e-02  65.772 1.73202e-04 6.39809e-03
        709    31  -84.737037  -84.705490 3.154652e-02  65.772 1.64795e-04 6.60199e-03
        710    30  -84.737050  -84.699906 3.714396e-02  65.772 1.53759e-04 6.85980e-03
        711    30  -84.737066  -84.695109 4.195663e-02  65.772 1.40580e-04 7.13058e-03
        712    29  -84.737083  -84.691207 4.587582e-02  65.772 1.25832e-04 7.37870e-03
        713    31  -84.737103  -84.688286 4.881734e-02  65.772 1.10207e-04 7.57653e-03
        714    30  -84.737124  -84.686399 5.072488e-02  65.772 9.45468e-05 7.70489e-03
        715    30  -84.737146  -84.685576 5.156944e-02  65.772 7.98941e-05 7.75265e-03
        716    29  -84.737168  -84.685815 5.135232e-02  65.772 6.75981e-05 7.71608e-03
        717    30  -84.737189  -84.687080 5.010949e-02  65.772 5.92089e-05 7.59821e-03
        718    30  -84.737210  -84.689309 4.790077e-02  65.772 5.59097e-05 7.40832e-03
        719    30  -84.737228  -84.692413 4.481540e-02  65.772 5.74600e-05 7.16142e-03
        720    30  -84.737245  -84.696282 4.096232e-02  65.772 6.21653e-05 6.87769e-03
        721    30  -84.737258  -84.700789 3.646975e-02  65.772 6.80288e-05 6.58143e-03
        722    35  -84.737269  -84.705785 3.148431e-02  65.772 7.35656e-05 6.29968e-03
        723    35  -84.737277  -84.711143 2.613396e-02  65.772 7.78458e-05 6.05985e-03
        724    35  -84.737282  -84.716692 2.058943e-02  65.772 8.03497e-05 5.88556e-03
        725    35  -84.737283  -84.722276 1.500744e-02  65.772 8.08545e-05 5.79221e-03
        726    35  -84.737282  -84.727740 9.541673e-03  65.772 7.93611e-05 5.78349e-03
[...]
       5708    19  -84.742919  -84.742914 5.459228e-06  14.887 8.94334e-06 2.14896e-05
       5709    19  -84.742919  -84.742908 1.128197e-05  14.887 8.93756e-06 2.11810e-05
       5710    19  -84.742919  -84.742902 1.692056e-05  14.887 8.93154e-06 2.09058e-05
       5711    19  -84.742919  -84.742897 2.224853e-05  14.887 8.92519e-06 2.06597e-05
       5712    19  -84.742919  -84.742892 2.718360e-05  14.887 8.91881e-06 2.04358e-05
       5713    19  -84.742919  -84.742888 3.162361e-05  14.887 8.91224e-06 2.02275e-05
       5714    19  -84.742920  -84.742884 3.550820e-05  14.887 8.90573e-06 2.00268e-05
       5715    19  -84.742920  -84.742881 3.875438e-05  14.887 8.89920e-06 1.98270e-05
       5716    19  -84.742920  -84.742878 4.132081e-05  14.887 8.89290e-06 1.96216e-05
       5717    19  -84.742920  -84.742877 4.316718e-05  14.887 8.88667e-06 1.94063e-05
       5718    19  -84.742920  -84.742876 4.427278e-05  14.887 8.88080e-06 1.91768e-05
       5719    19  -84.742920  -84.742875 4.464268e-05  14.887 8.87504e-06 1.89328e-05
       5720    19  -84.742920  -84.742876 4.428481e-05  14.887 8.86962e-06 1.86728e-05
       5721    19  -84.742920  -84.742877 4.324198e-05  14.887 8.86431e-06 1.83991e-05
       5722    19  -84.742920  -84.742879 4.154388e-05  14.887 8.85923e-06 1.81139e-05
       5723    19  -84.742921  -84.742881 3.925971e-05  14.887 8.85420e-06 1.78211e-05
       5724    19  -84.742921  -84.742884 3.643925e-05  14.887 8.84933e-06 1.75244e-05
       5725    19  -84.742921  -84.742888 3.316782e-05  14.887 8.84441e-06 1.72293e-05
       5726    19  -84.742921  -84.742891 2.950425e-05  14.887 8.83961e-06 1.69394e-05
       5727    19  -84.742921  -84.742895 2.555573e-05  14.887 8.83466e-06 1.66607e-05
       5728    19  -84.742921  -84.742900 2.137939e-05  14.887 8.82971e-06 1.63961e-05
       5729    19  -84.742921  -84.742904 1.708724e-05  14.887 8.82456e-06 1.61500e-05
       5730    19  -84.742921  -84.742908 1.272886e-05  14.887 8.81933e-06 1.59246e-05
       5731    19  -84.742921  -84.742913 8.414183e-06  14.887 8.81388e-06 1.57215e-05
       5732    19  -84.742921  -84.742917 4.186400e-06  14.887 8.80837e-06 1.55406e-05
       5733    19  -84.742921  -84.742921 1.458362e-07  14.887 8.80265e-06 1.53813e-05
       5734    19  -84.742921  -84.742924 3.669234e-06  14.887 8.79686e-06 1.52407e-05
       5735    19  -84.742921  -84.742928 7.174461e-06  14.887 8.79092e-06 1.51159e-05
       5736    19  -84.742921  -84.742931 1.034280e-05  14.887 8.78501e-06 1.50020e-05
       5737    19  -84.742921  -84.742934 1.310677e-05  14.887 8.77899e-06 1.48950e-05
       5738    19  -84.742921  -84.742936 1.545059e-05  14.887 8.77308e-06 1.47891e-05
       5739    19  -84.742920  -84.742938 1.732404e-05  14.887 8.76715e-06 1.46804e-05
       5740    19  -84.742920  -84.742939 1.872466e-05  14.887 8.76137e-06 1.45643e-05
       5741    19  -84.742920  -84.742940 1.962606e-05  14.887 8.75564e-06 1.44377e-05
       5742    19  -84.742920  -84.742940 2.003650e-05  14.887 8.75008e-06 1.42983e-05
       5743    19  -84.742920  -84.742940 1.995440e-05  14.887 8.74461e-06 1.41454e-05
       5744    19  -84.742920  -84.742939 1.939985e-05  14.887 8.73933e-06 1.39785e-05
       5745    19  -84.742920  -84.742938 1.838932e-05  14.887 8.73408e-06 1.38003e-05
       5746    19  -84.742920  -84.742937 1.695845e-05  14.887 8.72906e-06 1.36117e-05
       5747    19  -84.742920  -84.742935 1.513511e-05  14.887 8.72401e-06 1.34179e-05
       5748    19  -84.742920  -84.742933 1.296135e-05  14.887 8.71907e-06 1.32218e-05
       5749    19  -84.742919  -84.742930 1.048644e-05  14.887 8.71407e-06 1.30286e-05
       5750    19  -84.742919  -84.742927 7.758073e-06  14.887 8.70913e-06 1.28423e-05
       5751    19  -84.742919  -84.742924 4.834748e-06  14.887 8.70408e-06 1.26674e-05
       5752    19  -84.742919  -84.742921 1.766078e-06  14.887 8.69902e-06 1.25069e-05
       5753    19  -84.742919  -84.742918 1.382548e-06  14.887 8.69382e-06 1.23635e-05
       5754    19  -84.742919  -84.742915 4.560288e-06  14.887 8.68861e-06 1.22379e-05
       5755    19  -84.742919  -84.742912 7.702845e-06  14.887 8.68324e-06 1.21308e-05
       5756    19  -84.742919  -84.742909 1.075951e-05  14.887 8.67790e-06 1.20401e-05
       5757    19  -84.742919  -84.742906 1.367202e-05  14.887 8.67241e-06 1.19646e-05
       5758    19  -84.742919  -84.742903 1.639541e-05  14.887 8.66697e-06 1.19000e-05
       5759    19  -84.742919  -84.742901 1.887926e-05  14.887 8.66144e-06 1.18438e-05
       5760    19  -84.742919  -84.742898 2.108833e-05  14.887 8.65597e-06 1.17916e-05
       5761    19  -84.742920  -84.742897 2.298171e-05  14.887 8.65048e-06 1.17400e-05
       5762    19  -84.742920  -84.742895 2.453250e-05  14.887 8.64508e-06 1.16854e-05
       5763    19  -84.742920  -84.742894 2.571657e-05  14.887 8.63971e-06 1.16252e-05
       5764    19  -84.742920  -84.742893 2.651776e-05  14.887 8.63445e-06 1.15569e-05
       5765    19  -84.742920  -84.742893 2.692899e-05  14.887 8.62922e-06 1.14798e-05
       5766    19  -84.742920  -84.742893 2.694417e-05  14.887 8.62415e-06 1.13923e-05
       5767    19  -84.742920  -84.742893 2.657627e-05  14.887 8.61909e-06 1.12961e-05
       5768    19  -84.742920  -84.742894 2.583164e-05  14.887 8.61418e-06 1.11911e-05
       5769    19  -84.742920  -84.742895 2.474033e-05  14.887 8.60925e-06 1.10800e-05
       5770    19  -84.742920  -84.742897 2.331794e-05  14.887 8.60441e-06 1.09646e-05
       5771    19  -84.742920  -84.742899 2.160826e-05  14.887 8.59953e-06 1.08481e-05
       5772    19  -84.742920  -84.742901 1.963389e-05  14.887 8.59473e-06 1.07325e-05
       5773    19  -84.742920  -84.742903 1.745129e-05  14.887 8.58986e-06 1.06218e-05
       5774    19  -84.742920  -84.742905 1.509083e-05  14.887 8.58501e-06 1.05176e-05
       5775    19  -84.742920  -84.742908 1.261560e-05  14.887 8.58007e-06 1.04227e-05
       5776    19  -84.742920  -84.742910 1.005770e-05  14.887 8.57515e-06 1.03380e-05
       5777    19  -84.742920  -84.742913 7.483626e-06  14.887 8.57012e-06 1.02652e-05
       5778    19  -84.742920  -84.742915 4.925495e-06  14.887 8.56509e-06 1.02033e-05
       5779    19  -84.742920  -84.742918 2.446876e-06  14.887 8.55997e-06 1.01526e-05
       5780    19  -84.742920  -84.742920 7.769296e-08  14.887 8.55486e-06 1.01108e-05
       5781    19  -84.742920  -84.742922 2.125297e-06  14.887 8.54967e-06 1.00767e-05
       5782    19  -84.742920  -84.742924 4.138635e-06  14.887 8.54453e-06 1.00471e-05
       5783    19  -84.742920  -84.742926 5.914858e-06  14.887 8.53933e-06 1.00203e-05
       5784    19  -84.742920  -84.742927 7.439520e-06  14.887 8.53421e-06 9.99288e-06

        ==> Orbital Optimization <==


        iter       Energy        dE       |g|     r
           0   -84.742920 -5.85e-09  4.62e-05 1.000

            Orbital Optimization converged in   1 iterations 
            Total energy change: -5.846033e-09
            Final gradient norm: 4.624210e-05

            Total energy:     -74.963513825138


      v2RDM iterations converged!

      na:                                    5.000000
      nb:                                    5.000000
      v2RDM total spin [S(S+1)]:            -0.000000

    Molecular point group: c1
    Full point group: C2v

    Geometry (in Angstrom), charge = 0, multiplicity = 1:

       Center              X                  Y                   Z               Mass       
    ------------   -----------------  -----------------  -----------------  -----------------
         O            0.000000000000     0.000000000000    -0.061664597388    15.994914619570
         H            0.000000000000    -0.711620616369     0.489330954643     1.007825032230
         H            0.000000000000     0.711620616369     0.489330954643     1.007825032230

  -AO BASIS SET INFORMATION:
    Name                   = STO-3G
    Blend                  = STO-3G
    Total number of shells = 5
    Number of primitives   = 15
    Number of AO           = 7
    Number of SO           = 7
    Maximum AM             = 1
    Spherical Harmonics    = TRUE

  -Contraction Scheme:
    Atom   Type   All Primitives // Shells:
   ------ ------ --------------------------
       1     O     6s 3p // 2s 1p 
       2     H     3s // 1s 
       3     H     3s // 1s 

  ==> AO Basis Functions <==

    [ STO-3G ]
    spherical
    ****
    O   1
    S   3 1.00
                       130.70932000           0.15432897
                        23.80886100           0.53532814
                         6.44360830           0.44463454
    S   3 1.00
                         5.03315130          -0.09996723
                         1.16959610           0.39951283
                         0.38038900           0.70011547
    P   3 1.00
                         5.03315130           0.15591627
                         1.16959610           0.60768372
                         0.38038900           0.39195739
    ****
    H   2
    S   3 1.00
                         3.42525091           0.15432897
                         0.62391373           0.53532814
                         0.16885540           0.44463454
    ****
    H   3
    S   3 1.00
                         3.42525091           0.15432897
                         0.62391373           0.53532814
                         0.16885540           0.44463454
    ****

      Nuclear Repulsion Energy:                9.779406182853
      Two-Electron Energy:                    38.572960406773
      Kinetic Energy:                         74.756181886265
      Electron-Nuclear Potential Energy:    -198.072062301028

    * v2RDM total energy:                    -74.963513825138


 # Natural Orbital Occupation Numbers (alpha) #
 Irrep: 1
      1:    0.999999524823306
      2:    0.999953271338025
      3:    0.999714880124676
      4:    0.999706965081269
      5:    0.991246391643512
      6:    0.009378969669766
      7:    0.000000000000000


 # Natural Orbital Occupation Numbers (beta) #
 Irrep: 1
      1:    0.999999524348909
      2:    0.999953271411532
      3:    0.999714880612161
      4:    0.999706965655307
      5:    0.991246391246861
      6:    0.009378969327508
      7:    0.000000000000000


  ==> Iteration count <==

      Microiterations:                  126325
      Macroiterations:                    5785
      Orbital optimization steps:           13

  ==> Wall time <==

      Orbital optimization:               0.03 s
      Total:                             58.27 s


Scratch directory: /tmp/
   => Loading Basis Set <=

    Name: STO-3G
    Role: ORBITAL
    Keyword: BASIS
    atoms 1   entry O          line    81 file /Users/deprince/software/psi4/v1.9.1/psi4/install/share/psi4/basis/sto-3g.gbs 
    atoms 2-3 entry H          line    19 file /Users/deprince/software/psi4/v1.9.1/psi4/install/share/psi4/basis/sto-3g.gbs 


         ---------------------------------------------------------
                                   SCF
               by Justin Turney, Rob Parrish, Andy Simmonett
                          and Daniel G. A. Smith
                              UKS Reference
                        1 Threads,    953 MiB Core
         ---------------------------------------------------------

  ==> Geometry <==

    Molecular point group: c1
    Full point group: C2v

    Geometry (in Angstrom), charge = 0, multiplicity = 1:

       Center              X                  Y                   Z               Mass       
    ------------   -----------------  -----------------  -----------------  -----------------
         O            0.000000000000     0.000000000000    -0.061664597388    15.994914619570
         H            0.000000000000    -0.711620616369     0.489330954643     1.007825032230
         H            0.000000000000     0.711620616369     0.489330954643     1.007825032230

  Running in c1 symmetry.

  Rotational constants: A =     31.01920  B =     16.51522  C =     10.77722 [cm^-1]
  Rotational constants: A = 929932.18703  B = 495113.78650  C = 323092.90708 [MHz]
  Nuclear repulsion =    9.779406182852638

  Charge       = 0
  Multiplicity = 1
  Electrons    = 10
  Nalpha       = 5
  Nbeta        = 5

  ==> Algorithm <==

  SCF Algorithm Type is DF.
  DIIS enabled.
  MOM disabled.
  Fractional occupation disabled.
  Guess Type is AUTO.
  Energy threshold   = 1.00e-08
  Density threshold  = 1.00e-08
  Integral threshold = 1.00e-12

  ==> Primary Basis <==

  Basis Set: STO-3G
    Blend: STO-3G
    Number of shells: 5
    Number of basis functions: 7
    Number of Cartesian functions: 7
    Spherical Harmonics?: true
    Max angular momentum: 1

  ==> DFT Potential <==

   => LibXC <=

    Version 6.2.2
    S. Lehtola, C. Steigemann, M. J.T. Oliveira, and M. A.L. Marques.,  SoftwareX 7, 15 (2018) (10.1016/j.softx.2017.11.002)

   => Composite Functional: BLYP <= 

    BLYP GGA Exchange-Correlation Functional

    P.J. Stephens et. al., J. Phys. Chem., 98, 11623-11627, 1994
    B. Miehlich et. al., Chem. Phys. Lett., 157(3), 200-206 1989


    Deriv               =              1
    GGA                 =           TRUE
    Meta                =          FALSE

    Exchange Hybrid     =          FALSE
    MP2 Hybrid          =          FALSE

   => Exchange Functionals <=

    1.0000     XC_GGA_X_B88

   => Correlation Functionals <=

    1.0000     XC_GGA_C_LYP

   => LibXC Density Thresholds  <==

    XC_GGA_C_LYP:  1.00E-14 
    XC_GGA_X_B88:  1.00E-15 

   => Molecular Quadrature <=

    Radial Scheme          =       TREUTLER
    Pruning Scheme         =           NONE
    Nuclear Scheme         =       TREUTLER

    Blocking Scheme        =         OCTREE
    BS radius alpha        =              1
    Pruning alpha          =              1
    Radial Points          =             75
    Spherical Points       =            302
    Total Points           =          65697
    Total Blocks           =            553
    Max Points             =            254
    Max Functions          =              7
    Weights Tolerance      =       1.00E-15

   => Loading Basis Set <=

    Name: (STO-3G AUX)
    Role: JKFIT
    Keyword: DF_BASIS_SCF
    atoms 1   entry O          line   318 file /Users/deprince/software/psi4/v1.9.1/psi4/install/share/psi4/basis/def2-universal-jkfit.gbs 
    atoms 2-3 entry H          line    18 file /Users/deprince/software/psi4/v1.9.1/psi4/install/share/psi4/basis/def2-universal-jkfit.gbs 


Reading options from the HILBERT block
Calling plugin hilbert.so.


Plugins that use gradients: set Da, Db, and Lagrangian for gradient theory on the wavefunction. The old way of passing these will stop working as soon as 1.8.

        ********************************************************************
        *                                                                  *
        *    MCPDFT:                                                       *
        *                                                                  *
        *    Multiconfigurational Pair Density Functional Theory           *
        *    M. Mostafanejad and A. E. DePrince III                        *
        *                                                                  *
        ********************************************************************



    ==> Memory requirements <==

    =========================================================
    memory specified by the user:                 953.67 MB
    ---------------------------------------------------------
    initialization:                                 0.00 MB
    grid-points and weights:                        2.00 MB
    phi & phi' (AO):                               14.03 MB
    AO->SO transformation:                         18.04 MB
    rho and rho':                                   6.01 MB
    on-top pair density:                            2.00 MB
    on-top ratio:                                   0.50 MB
    translation step:                               5.51 MB
    extra:                                        500.00 MB
    ---------------------------------------------------------
    total memory for MCPDFT:                      548.12 MB
    =========================================================

    available memeory for building JK object:     423.60 MB


    ==> Build Phi and Phi' matrices ... Done. <==

    ==> Build Rho's ...

      Integrated total density =       9.999999943643
      Integrated alpha density =       4.999999971861
      Integrated beta density  =       4.999999971782

    ... Done. <==


    ==> Build Pi ... Done. <==
    ==> Build the on-top ratio R ... Done. <==

    ==> Regular translation of densities and/or density gradients ...

      Integrated translated total density =       9.999999943643
      Integrated translated alpha density =       5.411830444412
      Integrated translated beta density  =       4.588169499231

    ... Done. <==

    ==> Evaluate the on-top energy contribution <==

    ==> Evaluate kinetic, potential, and coulomb energies <==

    Molecular point group: c1
    Full point group: C2v

    Geometry (in Angstrom), charge = 0, multiplicity = 1:

       Center              X                  Y                   Z               Mass       
    ------------   -----------------  -----------------  -----------------  -----------------
         O            0.000000000000     0.000000000000    -0.061664597388    15.994914619570
         H            0.000000000000    -0.711620616369     0.489330954643     1.007825032230
         H            0.000000000000     0.711620616369     0.489330954643     1.007825032230

  -AO BASIS SET INFORMATION:
    Name                   = STO-3G
    Blend                  = STO-3G
    Total number of shells = 5
    Number of primitives   = 15
    Number of AO           = 7
    Number of SO           = 7
    Maximum AM             = 1
    Spherical Harmonics    = TRUE

  -Contraction Scheme:
    Atom   Type   All Primitives // Shells:
   ------ ------ --------------------------
       1     O     6s 3p // 2s 1p 
       2     H     3s // 1s 
       3     H     3s // 1s 

  ==> AO Basis Functions <==

    [ STO-3G ]
    spherical
    ****
    O   1
    S   3 1.00
                       130.70932000           0.15432897
                        23.80886100           0.53532814
                         6.44360830           0.44463454
    S   3 1.00
                         5.03315130          -0.09996723
                         1.16959610           0.39951283
                         0.38038900           0.70011547
    P   3 1.00
                         5.03315130           0.15591627
                         1.16959610           0.60768372
                         0.38038900           0.39195739
    ****
    H   2
    S   3 1.00
                         3.42525091           0.15432897
                         0.62391373           0.53532814
                         0.16885540           0.44463454
    ****
    H   3
    S   3 1.00
                         3.42525091           0.15432897
                         0.62391373           0.53532814
                         0.16885540           0.44463454
    ****

    ==> Energetics <==

        nuclear repulsion energy =                9.779406182853
        electron-nucleus potential energy =    -198.072062301028
        electron kinetic energy =                74.756181886265
        classical coulomb energy  =              47.763859270928
        Ex                        =              -9.139380247550
        Ec                        =              -0.339343859736

    * MCPDFT total energy   =            -75.251339068269

    MCPDFT total energy...................................................................PASSED

    Psi4 stopped on: Wednesday, 03 July 2024 10:36PM
    Psi4 wall time for execution: 0:01:10.54

*** Psi4 exiting successfully. Buy a developer a beer!
