
    -----------------------------------------------------------------------
          Psi4: An Open-Source Ab Initio Electronic Structure Package
                               Psi4 1.9.1 

                         Git: Rev {HEAD} f53cdd7 dirty


    D. G. A. Smith, L. A. Burns, A. C. Simmonett, R. M. Parrish,
    M. C. Schieber, R. Galvelis, P. Kraus, H. Kruse, R. Di Remigio,
    A. Alenaizan, A. M. James, S. Lehtola, J. P. Misiewicz, M. Scheurer,
    R. A. Shaw, J. B. Schriber, Y. Xie, Z. L. Glick, D. A. Sirianni,
    J. S. O'Brien, J. M. Waldrop, A. Kumar, E. G. Hohenstein,
    B. P. Pritchard, B. R. Brooks, H. F. Schaefer III, A. Yu. Sokolov,
    K. Patkowski, A. E. DePrince III, U. Bozkaya, R. A. King,
    F. A. Evangelista, J. M. Turney, T. D. Crawford, C. D. Sherrill,
    J. Chem. Phys. 152(18) 184108 (2020). https://doi.org/10.1063/5.0006002

                            Additional Code Authors
    E. T. Seidl, C. L. Janssen, E. F. Valeev, M. L. Leininger,
    J. F. Gonthier, R. M. Richard, H. R. McAlexander, M. Saitow, X. Wang,
    P. Verma, M. H. Lechner, A. Jiang, S. Behnle, A. G. Heide,
    M. F. Herbst, and D. L. Poole

             Previous Authors, Complete List of Code Contributors,
                       and Citations for Specific Modules
    https://github.com/psi4/psi4/blob/master/codemeta.json
    https://github.com/psi4/psi4/graphs/contributors
    http://psicode.org/psi4manual/master/introduction.html#citing-psifour

    -----------------------------------------------------------------------


    Psi4 started on: Saturday, 06 July 2024 08:46AM

    Process ID: 4740
    Host:       Alberts-MacBook-Pro.local
    PSIDATADIR: /Users/deprince/software/psi4/v1.9.1/psi4/install/share/psi4
    Memory:     500.0 MiB
    Threads:    1
    
  ==> Input File <==

--------------------------------------------------------------------------
#! MCPDFT

memory 1gb

sys.path.insert(0, '../../..')
import hilbert

molecule n2 {
0 1
n
n 1 1.1
}

set {
  basis cc-pvdz
  scf_type df
  d_convergence      1e-10
  maxiter 500
  restricted_docc [ 2, 0, 0, 0, 0, 2, 0, 0 ]
  active          [ 1, 0, 1, 1, 0, 1, 1, 1 ]
}

set hilbert {

  positivity dqg
  opdm_write_full true
  tpdm_write_full true
  constrain_spin true
  r_convergence  1e-5
  e_convergence  1e-5
  cg_convergence 1e-6
  maxiter 1000000

  optimize_orbitals true
  mu_update_frequency 500

  mcpdft_reference v2rdm
  mcpdft_type df
  mcpdft_functional blyp
  mcpdft_method mcpdft
}

# run v2rdm-casscf
en,wfn = energy('v2rdm-casscf', return_wfn=True)

refv2rdm = -109.094406531122
compare_values(refv2rdm, variable("CURRENT ENERGY"), 5, "v2RDM total energy") # TEST

# reference should be uks in mcpdft
set  reference uks

# pass v2rdm-casscf wavefunction object into mcpdft
energy('mcpdft',ref_wfn=wfn)

refmcpdft = -109.483557161585
compare_values(refmcpdft, variable("CURRENT ENERGY"), 5, "MC-PDFT total energy") # TEST
--------------------------------------------------------------------------

  Memory set to 953.674 MiB by Python driver.

Scratch directory: /tmp/
   => Libint2 <=

    Primary   basis highest AM E, G, H:  5, 4, 3
    Auxiliary basis highest AM E, G, H:  6, 5, 4
    Onebody   basis highest AM E, G, H:  6, 5, 4
    Solid Harmonics ordering:            Gaussian

*** tstart() called on Alberts-MacBook-Pro.local
*** at Sat Jul  6 08:46:33 2024

   => Loading Basis Set <=

    Name: CC-PVDZ
    Role: ORBITAL
    Keyword: BASIS
    atoms 1-2 entry N          line   168 file /Users/deprince/software/psi4/v1.9.1/psi4/install/share/psi4/basis/cc-pvdz.gbs 


         ---------------------------------------------------------
                                   SCF
               by Justin Turney, Rob Parrish, Andy Simmonett
                          and Daniel G. A. Smith
                              RHF Reference
                        1 Threads,    953 MiB Core
         ---------------------------------------------------------

  ==> Geometry <==

    Molecular point group: d2h
    Full point group: D_inf_h

    Geometry (in Angstrom), charge = 0, multiplicity = 1:

       Center              X                  Y                   Z               Mass       
    ------------   -----------------  -----------------  -----------------  -----------------
         N            0.000000000000     0.000000000000    -0.550000000000    14.003074004430
         N            0.000000000000     0.000000000000     0.550000000000    14.003074004430

  Running in d2h symmetry.

  Rotational constants: A = ************  B =      1.98984  C =      1.98984 [cm^-1]
  Rotational constants: A = ************  B =  59653.84489  C =  59653.84489 [MHz]
  Nuclear repulsion =   23.572439384390908

  Charge       = 0
  Multiplicity = 1
  Electrons    = 14
  Nalpha       = 7
  Nbeta        = 7

  ==> Algorithm <==

  SCF Algorithm Type is DF.
  DIIS enabled.
  MOM disabled.
  Fractional occupation disabled.
  Guess Type is SAD.
  Energy threshold   = 1.00e-08
  Density threshold  = 1.00e-10
  Integral threshold = 1.00e-12

  ==> Primary Basis <==

  Basis Set: CC-PVDZ
    Blend: CC-PVDZ
    Number of shells: 12
    Number of basis functions: 28
    Number of Cartesian functions: 30
    Spherical Harmonics?: true
    Max angular momentum: 2

   => Loading Basis Set <=

    Name: (CC-PVDZ AUX)
    Role: JKFIT
    Keyword: DF_BASIS_SCF
    atoms 1-2 entry N          line   171 file /Users/deprince/software/psi4/v1.9.1/psi4/install/share/psi4/basis/cc-pvdz-jkfit.gbs 

  ==> Integral Setup <==

  ==> DiskDFJK: Density-Fitted J/K Matrices <==

    J tasked:                  Yes
    K tasked:                  Yes
    wK tasked:                  No
    OpenMP threads:              1
    Integrals threads:           1
    Memory [MiB]:              715
    Algorithm:                Core
    Integral Cache:           SAVE
    Schwarz Cutoff:          1E-12
    Fitting Condition:       1E-10

   => Auxiliary Basis Set <=

  Basis Set: (CC-PVDZ AUX)
    Blend: CC-PVDZ-JKFIT
    Number of shells: 48
    Number of basis functions: 140
    Number of Cartesian functions: 162
    Spherical Harmonics?: true
    Max angular momentum: 3

  Minimum eigenvalue in the overlap matrix is 1.1767548982E-02.
  Reciprocal condition number of the overlap matrix is 4.1659319633E-03.
    Using symmetric orthogonalization.

  ==> Pre-Iterations <==

  SCF Guess: Superposition of Atomic Densities via on-the-fly atomic UHF (no occupation information).

   -------------------------
    Irrep   Nso     Nmo    
   -------------------------
     Ag         7       7 
     B1g        1       1 
     B2g        3       3 
     B3g        3       3 
     Au         1       1 
     B1u        7       7 
     B2u        3       3 
     B3u        3       3 
   -------------------------
    Total      28      28
   -------------------------

  ==> Iterations <==

                           Total Energy        Delta E     RMS |[F,P]|

   @DF-RHF iter SAD:  -108.07300399923328   -1.08073e+02   0.00000e+00 
   @DF-RHF iter   1:  -108.94804900472435   -8.75045e-01   8.81958e-03 DIIS/ADIIS
   @DF-RHF iter   2:  -108.95324410916341   -5.19510e-03   1.59716e-03 DIIS/ADIIS
   @DF-RHF iter   3:  -108.95347043651307   -2.26327e-04   4.12429e-04 DIIS/ADIIS
   @DF-RHF iter   4:  -108.95348790282688   -1.74663e-05   6.79358e-05 DIIS
   @DF-RHF iter   5:  -108.95348836505453   -4.62228e-07   1.18841e-05 DIIS
   @DF-RHF iter   6:  -108.95348837892686   -1.38723e-08   7.15651e-07 DIIS
   @DF-RHF iter   7:  -108.95348837896675   -3.98899e-11   3.14028e-08 DIIS
   @DF-RHF iter   8:  -108.95348837896692   -1.70530e-13   2.86887e-09 DIIS
   @DF-RHF iter   9:  -108.95348837896687    5.68434e-14   3.54889e-10 DIIS
   @DF-RHF iter  10:  -108.95348837896688   -1.42109e-14   1.22147e-11 DIIS
  Energy and wave function converged.


  ==> Post-Iterations <==

    Orbital Energies [Eh]
    ---------------------

    Doubly Occupied:                                                      

       1Ag   -15.687294     1B1u  -15.683937     2Ag    -1.469609  
       2B1u   -0.774890     3Ag    -0.626042     1B2u   -0.607131  
       1B3u   -0.607131  

    Virtual:                                                              

       1B2g    0.174361     1B3g    0.174361     3B1u    0.593802  
       4Ag     0.821219     2B3u    0.873141     2B2u    0.873141  
       5Ag     0.992144     2B2g    1.050649     2B3g    1.050649  
       4B1u    1.140869     5B1u    1.640793     1B1g    1.759650  
       6Ag     1.759650     3B2u    1.880643     3B3u    1.880643  
       6B1u    2.297692     1Au     2.297692     7Ag     2.872203  
       3B3g    2.994434     3B2g    2.994434     7B1u    3.278797  

    Final Occupation by Irrep:
             Ag   B1g   B2g   B3g    Au   B1u   B2u   B3u 
    DOCC [     3,    0,    0,    0,    0,    2,    1,    1 ]
    NA   [     3,    0,    0,    0,    0,    2,    1,    1 ]
    NB   [     3,    0,    0,    0,    0,    2,    1,    1 ]

  @DF-RHF Final Energy:  -108.95348837896688

   => Energetics <=

    Nuclear Repulsion Energy =             23.5724393843909077
    One-Electron Energy =                -194.1397893489838680
    Two-Electron Energy =                  61.6138615856260614
    Total Energy =                       -108.9534883789668811

Computation Completed


Properties will be evaluated at   0.000000,   0.000000,   0.000000 [a0]

Properties computed using the SCF density matrix


 Multipole Moments:

 ------------------------------------------------------------------------------------
     Multipole            Electronic (a.u.)      Nuclear  (a.u.)        Total (a.u.)
 ------------------------------------------------------------------------------------

 L = 1.  Multiply by 2.5417464519 to convert [e a0] to [Debye]
 Dipole X            :          0.0000000            0.0000000            0.0000000
 Dipole Y            :          0.0000000            0.0000000            0.0000000
 Dipole Z            :          0.0000000            0.0000000            0.0000000
 Magnitude           :                                                    0.0000000

 ------------------------------------------------------------------------------------

*** tstop() called on Alberts-MacBook-Pro.local at Sat Jul  6 08:46:33 2024
Module time:
	user time   =       0.18 seconds =       0.00 minutes
	system time =       0.06 seconds =       0.00 minutes
	total time  =          0 seconds =       0.00 minutes
Total time:
	user time   =       0.18 seconds =       0.00 minutes
	system time =       0.06 seconds =       0.00 minutes
	total time  =          0 seconds =       0.00 minutes

Reading options from the HILBERT block
Calling plugin hilbert.so.


Plugins that use gradients: set Da, Db, and Lagrangian for gradient theory on the wavefunction. The old way of passing these will stop working as soon as 1.8.

        ****************************************************
        *                                                  *
        *    v2RDM-CASSCF                                  *
        *                                                  *
        *    A variational 2-RDM-driven approach to the    *
        *    active space self-consistent field method     *
        *                                                  *
        ****************************************************


        The following papers should be cited when using v2RDM-CASSCF:

        J. Fosso-Tande, D. R. Nascimento, and A. E. DePrince III,
        Mol. Phys. 114, 423-430 (2015).

            URL: http://dx.doi.org/10.1080/00268976.2015.1078008

        J. Fosso-Tande, T.-S. Nguyen, G. Gidofalvi, and
        A. E. DePrince III, J. Chem. Theory Comput. 12, 2260-2271 (2016).

            URL: http://dx.doi.org/10.1021/acs.jctc.6b00190



  ==> Hamiltonian type <==

        molecular

  ==> Convergence parameters <==

        r_convergence:                      1.000e-05
        e_convergence:                      1.000e-05
        cg_convergence:                     1.000e-06
        maxiter:                              1000000
        cg_maxiter:                             10000

  ==> Active space details <==

        Number of frozen core orbitals:             0
        Number of restricted occupied orbitals:     4
        Number of active occupied orbitals:         7
        Number of active virtual orbitals:         21
        Number of restricted virtual orbitals:     18
        Number of frozen virtual orbitals:          0


  ==> Memory requirements <==

        D2:                          0.00 mb
        Q2:                          0.00 mb
        G2:                          0.01 mb

        Total number of variables:           1668
        Total number of constraints:         1969
        Total memory requirements:        0.55 mb

        Irrep:             Ag, B1g, B2g, B3g,  Au, B1u, B2u, B3u 
 
        frozen_docc     [   0,   0,   0,   0,   0,   0,   0,   0 ]
        restricted_docc [   2,   0,   0,   0,   0,   2,   0,   0 ]
        active          [   1,   0,   1,   1,   0,   1,   1,   1 ]
        restricted_uocc [   4,   1,   2,   2,   1,   4,   2,   2 ]
        frozen_uocc     [   0,   0,   0,   0,   0,   0,   0,   0 ]

  ==> Orbital optimization parameters <==

        1-step algorithm:                    true
        g_convergence:                      1.000e-04
        e_convergence:                      1.000e-08
        maximum iterations:                    10
        frequency:                            500
        active-active rotations:            false
        exact diagonal Hessian:              true
        number of DIIS vectors:                 0
        print iteration info:               false
    ==> Transform three-index integrals <==


        Time for integral transformation:     0.01 s

  ==> Active space details <==

        Number of frozen core orbitals:             0
        Number of restricted occupied orbitals:     4
        Number of active orbitals:                  6
        Number of restricted virtual orbitals:     18
        Number of frozen virtual orbitals:          0

        Irrep:             Ag, B1g, B2g, B3g,  Au, B1u, B2u, B3u 
 
        frozen_docc     [   0,   0,   0,   0,   0,   0,   0,   0 ]
        restricted_docc [   2,   0,   0,   0,   0,   2,   0,   0 ]
        active          [   1,   0,   1,   1,   0,   1,   1,   1 ]
        restricted_uocc [   4,   1,   2,   2,   1,   4,   2,   2 ]
        frozen_uocc     [   0,   0,   0,   0,   0,   0,   0,   0 ]

  ==> Orbital optimization parameters <==

        g_convergence:                  1.000e-04
        e_convergence:                  1.000e-08
        maximum iterations:                    10
        exact diagonal Hessian:              true
        print iteration info:               false
        algorithm:                    HAGER_ZHANG
        active-active rotations:            false

    Molecular point group: d2h
    Full point group: D_inf_h

    Geometry (in Angstrom), charge = 0, multiplicity = 1:

       Center              X                  Y                   Z               Mass       
    ------------   -----------------  -----------------  -----------------  -----------------
         N            0.000000000000     0.000000000000    -0.550000000000    14.003074004430
         N            0.000000000000     0.000000000000     0.550000000000    14.003074004430

  -AO BASIS SET INFORMATION:
    Name                   = CC-PVDZ
    Blend                  = CC-PVDZ
    Total number of shells = 12
    Number of primitives   = 44
    Number of AO           = 30
    Number of SO           = 28
    Maximum AM             = 2
    Spherical Harmonics    = TRUE

  -Contraction Scheme:
    Atom   Type   All Primitives // Shells:
   ------ ------ --------------------------
       1     N     17s 4p 1d // 3s 2p 1d 
       2     N     17s 4p 1d // 3s 2p 1d 

  ==> AO Basis Functions <==

    [ CC-PVDZ ]
    spherical
    ****
    N   1
    S   8 1.00
                      9046.00000000           0.00070000
                      1357.00000000           0.00538900
                       309.30000000           0.02740600
                        87.73000000           0.10320700
                        28.56000000           0.27872300
                        10.21000000           0.44854000
                         3.83800000           0.27823800
                         0.74660000           0.01544000
    S   8 1.00
                      9046.00000000          -0.00015300
                      1357.00000000          -0.00120800
                       309.30000000          -0.00599200
                        87.73000000          -0.02454400
                        28.56000000          -0.06745900
                        10.21000000          -0.15807800
                         3.83800000          -0.12183100
                         0.74660000           0.54900300
    S   1 1.00
                         0.22480000           1.00000000
    P   3 1.00
                        13.55000000           0.03991900
                         2.91700000           0.21716900
                         0.79730000           0.51031900
    P   1 1.00
                         0.21850000           1.00000000
    D   1 1.00
                         0.81700000           1.00000000
    ****


    initial primal energy:      -3.568649718709

      oiter iiter        E(p)        E(d)       E(gap)      mu      eps(p)      eps(d)
          0    27   -6.389094    7.182383 1.357148e+01   0.100 1.32872e+01 5.14208e+00
          1    18  -11.132215  -13.120232 1.988016e+00   0.100 2.91601e+00 7.34419e-01
          2    17  -12.392390  -11.801630 5.907603e-01   0.100 3.95636e+00 3.74195e-01
          3    20  -12.133264  -10.996905 1.136359e+00   0.100 3.63627e+00 1.81884e-01
          4    19  -11.633413  -10.649126 9.842871e-01   0.100 2.15879e+00 1.54201e-01
          5    18  -11.413509  -10.605546 8.079633e-01   0.100 1.11119e+00 1.21305e-01
          6    17  -11.323262  -10.722055 6.012069e-01   0.100 8.29810e-01 1.02783e-01
          7    17  -11.362283  -10.831463 5.308198e-01   0.100 6.69057e-01 9.59874e-02
          8    17  -11.381387  -10.917714 4.636727e-01   0.100 5.73025e-01 8.65779e-02
          9    17  -11.402182  -10.982372 4.198096e-01   0.100 5.30785e-01 7.71719e-02
         10    17  -11.462152  -11.052761 4.093906e-01   0.100 4.71140e-01 7.15696e-02
         11    17  -11.466398  -11.129951 3.364468e-01   0.100 4.77488e-01 6.45593e-02
         12    17  -11.440390  -11.191266 2.491238e-01   0.100 5.63019e-01 5.15799e-02
         13    18  -11.467229  -11.268744 1.984842e-01   0.100 7.07306e-01 3.51632e-02
         14    21  -11.568282  -11.392582 1.757000e-01   0.100 7.35736e-01 2.36324e-02
         15    21  -11.587533  -11.530141 5.739230e-02   0.100 6.67887e-01 1.53098e-02
         16    21  -11.553408  -11.633488 8.007911e-02   0.100 4.98717e-01 1.80919e-02
         17    19  -11.479686  -11.678673 1.989871e-01   0.100 3.28628e-01 2.08824e-02
         18    17  -11.408494  -11.669883 2.613893e-01   0.100 2.65940e-01 1.94476e-02
         19    14  -11.366852  -11.621457 2.546044e-01   0.100 3.13696e-01 1.46372e-02
         20    17  -11.523589  -11.555752 3.216285e-02   0.100 2.96447e-01 1.03078e-02
         21    21  -11.576251  -11.502930 7.332132e-02   0.100 2.95671e-01 7.51140e-03
         22    21  -11.577681  -11.472338 1.053424e-01   0.100 2.62322e-01 6.26189e-03
         23    20  -11.564981  -11.456101 1.088805e-01   0.100 1.79796e-01 5.99015e-03
         24    21  -11.541711  -11.455335 8.637563e-02   0.100 1.26311e-01 4.96733e-03
         25    20  -11.531555  -11.461381 7.017421e-02   0.100 1.16854e-01 3.71620e-03
         26    21  -11.525407  -11.469474 5.593298e-02   0.100 1.16014e-01 2.46401e-03
         27    21  -11.522206  -11.475819 4.638674e-02   0.100 1.10887e-01 1.97072e-03
         28    21  -11.516202  -11.480054 3.614783e-02   0.100 9.51965e-02 2.84179e-03
         29    20  -11.514932  -11.484998 2.993388e-02   0.100 8.66344e-02 2.81614e-03
         30    21  -11.516972  -11.489252 2.771966e-02   0.100 8.19343e-02 2.45447e-03
         31    20  -11.519359  -11.491670 2.768878e-02   0.100 7.91119e-02 2.13048e-03
         32    19  -11.520171  -11.492325 2.784583e-02   0.100 7.74512e-02 2.18869e-03
         33    20  -11.519004  -11.492240 2.676404e-02   0.100 7.62284e-02 2.19416e-03
         34    19  -11.516930  -11.491825 2.510568e-02   0.100 7.60602e-02 2.21828e-03
         35    19  -11.514084  -11.490597 2.348742e-02   0.100 7.62462e-02 2.22314e-03
         36    20  -11.511351  -11.489022 2.232842e-02   0.100 7.64933e-02 2.16447e-03
         37    19  -11.508955  -11.487484 2.147127e-02   0.100 7.69287e-02 2.00891e-03
         38    21  -11.507350  -11.485989 2.136087e-02   0.100 7.75085e-02 1.77338e-03
         39    20  -11.505545  -11.484413 2.113295e-02   0.100 7.59137e-02 1.63539e-03
         40    21  -11.501274  -11.483285 1.798939e-02   0.100 6.62312e-02 2.02241e-03
         41    19  -11.500041  -11.482878 1.716207e-02   0.100 6.17473e-02 2.02053e-03
         42    19  -11.499668  -11.482036 1.763145e-02   0.100 5.97919e-02 1.77057e-03
         43    19  -11.497480  -11.480656 1.682457e-02   0.100 5.46944e-02 1.63588e-03
         44    19  -11.495376  -11.479853 1.552369e-02   0.100 4.99919e-02 1.63455e-03
         45    20  -11.494800  -11.479434 1.536617e-02   0.100 4.80378e-02 1.50043e-03
         46    21  -11.494666  -11.478989 1.567776e-02   0.100 4.70241e-02 1.36602e-03
         47    20  -11.494610  -11.478379 1.623111e-02   0.100 4.65772e-02 1.24744e-03
         48    21  -11.494325  -11.477545 1.677995e-02   0.100 4.66250e-02 1.06411e-03
         49    21  -11.493956  -11.476561 1.739501e-02   0.100 4.68038e-02 8.16998e-04
         50    21  -11.493510  -11.475563 1.794739e-02   0.100 4.66143e-02 6.12878e-04
         51    24  -11.493074  -11.474677 1.839724e-02   0.100 4.57468e-02 6.82944e-04
         52    24  -11.493202  -11.474464 1.873808e-02   0.100 4.51126e-02 6.90146e-04
         53    25  -11.493369  -11.474248 1.912089e-02   0.100 4.46575e-02 7.13241e-04
         54    24  -11.493388  -11.473829 1.955844e-02   0.100 4.43295e-02 6.89982e-04
         55    20  -11.493418  -11.473348 2.006940e-02   0.100 4.40805e-02 6.15862e-04
         56    21  -11.493482  -11.472884 2.059818e-02   0.100 4.38000e-02 5.27862e-04
         57    21  -11.493566  -11.472493 2.107289e-02   0.100 4.34046e-02 4.69244e-04
         58    25  -11.493583  -11.472224 2.135952e-02   0.100 4.28673e-02 4.56608e-04
         59    25  -11.493501  -11.472095 2.140587e-02   0.100 4.22623e-02 4.62673e-04
         60    24  -11.493347  -11.472120 2.122704e-02   0.100 4.01787e-02 7.91793e-04
         61    21  -11.492425  -11.472612 1.981315e-02   0.100 3.81947e-02 9.78633e-04
         62    21  -11.491732  -11.473687 1.804482e-02   0.100 3.68748e-02 8.55920e-04
         63    20  -11.491725  -11.475040 1.668478e-02   0.100 3.65572e-02 8.16985e-04
         64    21  -11.490714  -11.476357 1.435691e-02   0.100 3.56066e-02 9.10796e-04
         65    20  -11.489175  -11.477974 1.120078e-02   0.100 3.46906e-02 9.77498e-04
         66    20  -11.488592  -11.479188 9.404316e-03   0.100 3.49495e-02 1.01393e-03
         67    21  -11.487982  -11.479924 8.058202e-03   0.100 3.53178e-02 1.08190e-03
         68    21  -11.486829  -11.480269 6.559481e-03   0.100 3.50833e-02 1.15955e-03
         69    21  -11.485645  -11.480389 5.255653e-03   0.100 3.44487e-02 1.20246e-03
         70    20  -11.484762  -11.480384 4.377198e-03   0.100 3.39712e-02 1.20653e-03
         71    21  -11.483671  -11.480189 3.481747e-03   0.100 3.38175e-02 1.17976e-03
         72    21  -11.482697  -11.479799 2.898705e-03   0.100 3.40358e-02 1.09045e-03
         73    21  -11.481891  -11.479262 2.628147e-03   0.100 3.45345e-02 9.53187e-04
         74    21  -11.481283  -11.478605 2.677192e-03   0.100 3.51977e-02 7.97839e-04
         75    21  -11.480878  -11.477828 3.049839e-03   0.100 3.59067e-02 6.53517e-04
         76    21  -11.480659  -11.476928 3.730730e-03   0.100 3.65648e-02 5.40240e-04
         77    21  -11.480599  -11.475921 4.677412e-03   0.100 3.70929e-02 4.62102e-04
         78    21  -11.480650  -11.474838 5.812076e-03   0.100 3.74156e-02 4.09168e-04
         79    21  -11.480772  -11.473724 7.048351e-03   0.100 3.74697e-02 3.71098e-04
         80    21  -11.480943  -11.472633 8.310151e-03   0.100 3.72153e-02 3.49273e-04
         81    21  -11.481147  -11.471617 9.530091e-03   0.100 3.66494e-02 3.54839e-04
         82    21  -11.481384  -11.470722 1.066167e-02   0.100 3.58136e-02 3.92936e-04
         83    21  -11.481644  -11.469982 1.166210e-02   0.100 3.47818e-02 4.52865e-04
         84    21  -11.481932  -11.469416 1.251610e-02   0.100 3.36566e-02 5.16742e-04
         85    21  -11.482244  -11.469034 1.320998e-02   0.100 3.25394e-02 5.69513e-04
         86    21  -11.482566  -11.468831 1.373565e-02   0.100 3.15147e-02 6.01845e-04
         87    21  -11.482889  -11.468797 1.409264e-02   0.100 3.06391e-02 6.09750e-04
         88    21  -11.483207  -11.468915 1.429241e-02   0.100 2.99358e-02 5.93472e-04
         89    21  -11.483495  -11.469165 1.432964e-02   0.100 2.93898e-02 5.56233e-04
         90    21  -11.483755  -11.469526 1.422899e-02   0.100 2.89786e-02 5.02975e-04
         91    21  -11.483957  -11.469975 1.398161e-02   0.100 2.86633e-02 4.39282e-04
         92    21  -11.484110  -11.470488 1.362151e-02   0.100 2.84197e-02 3.70652e-04
         93    21  -11.484198  -11.471043 1.315551e-02   0.100 2.82277e-02 3.02313e-04
         94    21  -11.484224  -11.471616 1.260822e-02   0.100 2.80779e-02 2.39824e-04
         95    25  -11.484204  -11.472189 1.201499e-02   0.100 2.79670e-02 1.90612e-04
         96    25  -11.484113  -11.472732 1.138027e-02   0.100 2.78980e-02 1.64746e-04
         97    25  -11.483969  -11.473236 1.073348e-02   0.100 2.78720e-02 1.68478e-04
         98    25  -11.483781  -11.473680 1.010079e-02   0.100 2.78912e-02 1.94268e-04
         99    25  -11.483556  -11.474054 9.502034e-03   0.100 2.79570e-02 2.28559e-04
        100    21  -11.483288  -11.474342 8.946636e-03   0.100 2.80699e-02 2.61741e-04
        101    24  -11.483034  -11.474549 8.485536e-03   0.100 2.82213e-02 2.88353e-04
        102    21  -11.483975  -11.474656 9.319477e-03   0.100 2.81131e-02 3.16283e-04
        103    21  -11.483651  -11.474759 8.892268e-03   0.100 2.84085e-02 3.12542e-04
        104    21  -11.484521  -11.474661 9.859470e-03   0.100 2.83729e-02 3.16821e-04
        105    21  -11.484484  -11.474561 9.922321e-03   0.100 2.87292e-02 2.93725e-04
        106    21  -11.484291  -11.474313 9.978226e-03   0.100 2.90182e-02 2.69129e-04
        107    21  -11.484121  -11.473998 1.012269e-02   0.100 2.92262e-02 2.37848e-04
        108    21  -11.483969  -11.473652 1.031668e-02   0.100 2.93512e-02 2.01952e-04
        109    22  -11.483766  -11.473290 1.047631e-02   0.100 2.92030e-02 1.65154e-04
        110    26  -11.482921  -11.472926 9.995286e-03   0.100 2.74993e-02 1.81671e-04
        111    26  -11.482540  -11.472626 9.913793e-03   0.100 2.68631e-02 1.37603e-04
        112    27  -11.482585  -11.472332 1.025363e-02   0.100 2.69209e-02 1.10546e-04
        113    25  -11.482727  -11.471986 1.074068e-02   0.100 2.70155e-02 1.18700e-04
        114    27  -11.482866  -11.471601 1.126413e-02   0.100 2.69939e-02 1.39323e-04
        115    25  -11.482403  -11.471224 1.117910e-02   0.100 2.57307e-02 2.08181e-04
        116    22  -11.482206  -11.470949 1.125708e-02   0.100 2.50995e-02 1.99343e-04
        117    22  -11.482253  -11.470758 1.149464e-02   0.100 2.47329e-02 2.14202e-04
        118    22  -11.482369  -11.470607 1.176166e-02   0.100 2.44512e-02 2.27400e-04
        119    22  -11.482493  -11.470489 1.200406e-02   0.100 2.41770e-02 2.34814e-04
        120    22  -11.482585  -11.470414 1.217053e-02   0.100 2.38775e-02 2.35833e-04
        121    21  -11.482648  -11.470399 1.224832e-02   0.100 2.35652e-02 2.30475e-04
        122    21  -11.482693  -11.470451 1.224254e-02   0.100 2.32678e-02 2.19181e-04
        123    22  -11.482728  -11.470562 1.216685e-02   0.100 2.30077e-02 2.02768e-04
        124    22  -11.482754  -11.470718 1.203647e-02   0.100 2.27966e-02 1.82416e-04
        125    22  -11.482768  -11.470905 1.186285e-02   0.100 2.26360e-02 1.59658e-04
        126    24  -11.482780  -11.471112 1.166882e-02   0.100 2.25214e-02 1.36329e-04
        127    26  -11.482774  -11.471318 1.145538e-02   0.100 2.24503e-02 1.14568e-04
        128    25  -11.482752  -11.471521 1.123146e-02   0.100 2.24159e-02 9.69609e-05
        129    28  -11.482720  -11.471706 1.101410e-02   0.100 2.24123e-02 8.61559e-05
        130    27  -11.482672  -11.471874 1.079742e-02   0.100 2.24343e-02 8.35420e-05
        131    25  -11.482608  -11.472017 1.059055e-02   0.100 2.24784e-02 8.77962e-05
        132    28  -11.482538  -11.472127 1.041143e-02   0.100 2.25396e-02 9.57180e-05
        133    27  -11.482456  -11.472209 1.024731e-02   0.100 2.26129e-02 1.04268e-04
        134    25  -11.482365  -11.472261 1.010438e-02   0.100 2.26954e-02 1.11408e-04
        135    25  -11.482272  -11.472280 9.992474e-03   0.100 2.27836e-02 1.15974e-04
        136    25  -11.482181  -11.472270 9.911193e-03   0.100 2.28733e-02 1.17420e-04
        137    25  -11.482092  -11.472232 9.859912e-03   0.100 2.29607e-02 1.15617e-04
        138    25  -11.482006  -11.472168 9.838144e-03   0.100 2.30423e-02 1.10767e-04
        139    27  -11.481929  -11.472080 9.848901e-03   0.100 2.31142e-02 1.03342e-04
        140    27  -11.481860  -11.471972 9.887926e-03   0.100 2.31732e-02 9.40584e-05
        141    25  -11.481429  -11.471848 9.580547e-03   0.100 2.24293e-02 2.72153e-04
        142    21  -11.481293  -11.472003 9.289971e-03   0.100 2.20124e-02 3.30811e-04
        143    21  -11.481470  -11.472083 9.386444e-03   0.100 2.21815e-02 3.00859e-04
        144    20  -11.481695  -11.472032 9.663352e-03   0.100 2.25642e-02 2.15708e-04
        145    22  -11.481824  -11.471858 9.966134e-03   0.100 2.28738e-02 1.31372e-04
        146    25  -11.481827  -11.471610 1.021760e-02   0.100 2.29878e-02 9.86014e-05
        147    27  -11.481712  -11.471343 1.036902e-02   0.100 2.29277e-02 1.10977e-04
        148    25  -11.481554  -11.471111 1.044271e-02   0.100 2.27608e-02 1.18588e-04
        149    26  -11.481404  -11.470939 1.046566e-02   0.100 2.25464e-02 1.09799e-04
        150    27  -11.481295  -11.470831 1.046348e-02   0.100 2.23256e-02 9.33492e-05
        151    27  -11.481237  -11.470778 1.045887e-02   0.100 2.21276e-02 8.21063e-05
        152    28  -11.481227  -11.470757 1.047062e-02   0.100 2.19681e-02 8.19521e-05
        153    25  -11.480693  -11.470752 9.941002e-03   0.100 2.05609e-02 1.22476e-04
        154    26  -11.479980  -11.470803 9.176950e-03   0.100 1.91263e-02 1.64952e-04
        155    22  -11.479905  -11.470892 9.012773e-03   0.100 1.88861e-02 1.21377e-04
        156    26  -11.479909  -11.470931 8.977486e-03   0.100 1.88487e-02 9.19486e-05
        157    27  -11.479949  -11.470932 9.016822e-03   0.100 1.89259e-02 8.08223e-05
        158    26  -11.479992  -11.470904 9.087864e-03   0.100 1.88948e-02 2.14473e-04
        159    25  -11.480057  -11.470975 9.082038e-03   0.100 1.90239e-02 1.32764e-04
        160    27  -11.480082  -11.470992 9.090443e-03   0.100 1.90503e-02 1.35173e-04
        161    25  -11.480067  -11.471027 9.039966e-03   0.100 1.88972e-02 2.87506e-04
        162    25  -11.480095  -11.471208 8.887510e-03   0.100 1.89925e-02 1.68266e-04
        163    27  -11.480095  -11.471263 8.831942e-03   0.100 1.87381e-02 3.60745e-04
        164    22  -11.480170  -11.471539 8.631485e-03   0.100 1.90242e-02 2.57216e-04
        165    22  -11.480202  -11.471630 8.572077e-03   0.100 1.93119e-02 2.55634e-04
        166    22  -11.480172  -11.471666 8.506179e-03   0.100 1.95351e-02 2.45004e-04
        167    22  -11.480105  -11.471679 8.425794e-03   0.100 1.97315e-02 2.20881e-04
        168    22  -11.480031  -11.471667 8.364251e-03   0.100 1.98916e-02 1.91528e-04
        169    22  -11.479953  -11.471648 8.305549e-03   0.100 2.00096e-02 2.40558e-04
        170    25  -11.479922  -11.471688 8.233744e-03   0.100 2.02049e-02 1.67282e-04
        171    22  -11.479868  -11.471663 8.205149e-03   0.100 2.03860e-02 1.95063e-04
        172    22  -11.479806  -11.471640 8.166575e-03   0.100 2.05429e-02 1.77766e-04
        173    22  -11.479699  -11.471536 8.163115e-03   0.100 2.05524e-02 2.07054e-04
        174    22  -11.479575  -11.471414 8.161190e-03   0.100 2.04740e-02 2.31100e-04
        175    22  -11.479456  -11.471280 8.176058e-03   0.100 2.03703e-02 2.44108e-04
        176    22  -11.479358  -11.471138 8.220161e-03   0.100 2.02783e-02 2.44608e-04
        177    22  -11.479275  -11.470991 8.284093e-03   0.100 2.02068e-02 2.33142e-04
        178    22  -11.479210  -11.470842 8.367762e-03   0.100 2.01496e-02 2.11436e-04
        179    22  -11.479171  -11.470694 8.477075e-03   0.100 2.00944e-02 1.82277e-04
        180    22  -11.479138  -11.470550 8.588398e-03   0.100 2.00266e-02 1.49755e-04
        181    25  -11.479131  -11.470416 8.714715e-03   0.100 1.99394e-02 1.19926e-04
        182    26  -11.479129  -11.470295 8.833586e-03   0.100 1.98296e-02 1.01354e-04
        183    26  -11.479139  -11.470193 8.945857e-03   0.100 1.97011e-02 1.01060e-04
        184    25  -11.479160  -11.470112 9.047916e-03   0.100 1.95620e-02 1.15554e-04
        185    25  -11.479190  -11.470053 9.136865e-03   0.100 1.94224e-02 1.34976e-04
        186    25  -11.479226  -11.470015 9.210164e-03   0.100 1.92916e-02 1.52149e-04
        187    27  -11.479263  -11.469998 9.265501e-03   0.100 1.91749e-02 1.63428e-04
        188    22  -11.479292  -11.469998 9.294285e-03   0.100 1.90776e-02 1.67313e-04
        189    22  -11.479322  -11.470016 9.306483e-03   0.100 1.89988e-02 1.63580e-04
        190    22  -11.479346  -11.470047 9.298122e-03   0.100 1.89360e-02 1.52924e-04
        191    22  -11.479354  -11.470091 9.263320e-03   0.100 1.88841e-02 1.36710e-04
        192    25  -11.479362  -11.470145 9.216614e-03   0.100 1.88381e-02 1.16955e-04
        193    25  -11.479348  -11.470205 9.143636e-03   0.100 1.87937e-02 9.63575e-05
        194    27  -11.479322  -11.470269 9.052138e-03   0.100 1.87470e-02 7.87129e-05
        195    27  -11.479282  -11.470337 8.945642e-03   0.100 1.86972e-02 6.87295e-05
        196    27  -11.479231  -11.470403 8.828209e-03   0.100 1.86454e-02 6.93347e-05
        197    27  -11.479170  -11.470466 8.704433e-03   0.100 1.85881e-02 7.91242e-05
        198    26  -11.479101  -11.470528 8.573600e-03   0.100 1.85353e-02 1.12898e-04
        199    25  -11.479030  -11.470600 8.430128e-03   0.100 1.85434e-02 1.01922e-04
        200    27  -11.478957  -11.470621 8.335922e-03   0.100 1.85315e-02 1.08729e-04
        201    25  -11.478874  -11.470632 8.242576e-03   0.100 1.85051e-02 1.12937e-04
        202    27  -11.478785  -11.470636 8.149321e-03   0.100 1.84617e-02 1.18308e-04
        203    26  -11.478700  -11.470649 8.050827e-03   0.100 1.84400e-02 1.26911e-04
        204    27  -11.478626  -11.470667 7.959638e-03   0.100 1.84443e-02 1.28343e-04
        205    25  -11.478559  -11.470669 7.890271e-03   0.100 1.84742e-02 1.13274e-04
        206    27  -11.478489  -11.470643 7.846492e-03   0.100 1.83216e-02 2.03956e-04
        207    22  -11.478490  -11.470690 7.799908e-03   0.100 1.83377e-02 1.32824e-04
        208    25  -11.478484  -11.470714 7.770196e-03   0.100 1.84816e-02 1.07042e-04
        209    26  -11.478455  -11.470677 7.777511e-03   0.100 1.86481e-02 1.04419e-04
        210    27  -11.478427  -11.470596 7.831493e-03   0.100 1.87757e-02 9.94608e-05
        211    26  -11.478404  -11.470489 7.915055e-03   0.100 1.88496e-02 9.42657e-05
        212    25  -11.478381  -11.470373 8.007296e-03   0.100 1.88721e-02 9.09827e-05
        213    27  -11.478356  -11.470261 8.094283e-03   0.100 1.88491e-02 8.94329e-05
        214    25  -11.478330  -11.470162 8.167484e-03   0.100 1.87916e-02 8.84536e-05
        215    26  -11.478307  -11.470082 8.225453e-03   0.100 1.87129e-02 8.68260e-05
        216    26  -11.478291  -11.470021 8.269938e-03   0.100 1.86284e-02 8.40901e-05
        217    26  -11.478282  -11.469977 8.304524e-03   0.100 1.85496e-02 8.06616e-05
        218    25  -11.478283  -11.469947 8.335888e-03   0.100 1.84841e-02 7.74465e-05
        219    27  -11.478292  -11.469923 8.368619e-03   0.100 1.84329e-02 7.52738e-05
        220    25  -11.478307  -11.469903 8.403932e-03   0.100 1.83936e-02 7.44832e-05
        221    27  -11.478325  -11.469883 8.442476e-03   0.100 1.83396e-02 1.05640e-04
        222    26  -11.478347  -11.469891 8.455573e-03   0.100 1.83601e-02 8.21249e-05
        223    27  -11.478372  -11.469861 8.511328e-03   0.100 1.83658e-02 8.08862e-05
        224    26  -11.478389  -11.469823 8.565806e-03   0.100 1.83373e-02 8.09092e-05
        225    27  -11.478347  -11.469794 8.553066e-03   0.100 1.81365e-02 8.18651e-05
        226    26  -11.477234  -11.469780 7.454293e-03   0.100 1.56154e-02 1.95866e-04
        227    26  -11.477074  -11.469895 7.178050e-03   0.100 1.51610e-02 1.38569e-04
        228    25  -11.477016  -11.469977 7.038368e-03   0.100 1.50114e-02 1.03783e-04
        229    27  -11.476970  -11.470036 6.934428e-03   0.100 1.49817e-02 8.47281e-05
        230    26  -11.476946  -11.470073 6.873043e-03   0.100 1.50178e-02 8.26238e-05
        231    27  -11.476928  -11.470089 6.839228e-03   0.100 1.50681e-02 7.89429e-05
        232    27  -11.476312  -11.470089 6.222868e-03   0.100 1.40219e-02 1.36483e-04
        233    26  -11.475641  -11.470144 5.497308e-03   0.100 1.30801e-02 1.63288e-04
        234    26  -11.475571  -11.470235 5.336527e-03   0.100 1.30222e-02 1.08682e-04
        235    26  -11.475508  -11.470283 5.225608e-03   0.100 1.30178e-02 8.97309e-05
        236    25  -11.475438  -11.470323 5.115174e-03   0.100 1.30489e-02 1.05273e-04
        237    26  -11.475381  -11.470350 5.030239e-03   0.100 1.31326e-02 8.89802e-05
        238    25  -11.475330  -11.470322 5.007530e-03   0.100 1.32052e-02 8.75570e-05
        239    26  -11.475283  -11.470276 5.006737e-03   0.100 1.32625e-02 8.46699e-05
        240    26  -11.475238  -11.470219 5.018650e-03   0.100 1.33055e-02 8.20932e-05
        241    25  -11.475196  -11.470158 5.037571e-03   0.100 1.33362e-02 7.87644e-05
        242    26  -11.475157  -11.470097 5.059568e-03   0.100 1.33560e-02 7.39318e-05
        243    26  -11.475122  -11.470040 5.082578e-03   0.100 1.33668e-02 6.80483e-05
        244    26  -11.475093  -11.469985 5.107678e-03   0.100 1.33708e-02 6.20740e-05
        245    26  -11.475070  -11.469933 5.137152e-03   0.100 1.33697e-02 5.70506e-05
        246    26  -11.475054  -11.469881 5.173522e-03   0.100 1.33639e-02 5.39546e-05
        247    26  -11.475045  -11.469827 5.218488e-03   0.100 1.31953e-02 1.29137e-04
        248    26  -11.475068  -11.469870 5.197602e-03   0.100 1.29733e-02 2.04743e-04
        249    20  -11.475118  -11.469979 5.138426e-03   0.100 1.28015e-02 2.13905e-04
        250    21  -11.475142  -11.470027 5.114566e-03   0.100 1.27081e-02 2.15316e-04
        251    22  -11.475157  -11.470047 5.110026e-03   0.100 1.26657e-02 1.95089e-04
        252    20  -11.475134  -11.470039 5.094895e-03   0.100 1.26333e-02 1.66403e-04
        253    21  -11.475088  -11.470005 5.082945e-03   0.100 1.25920e-02 1.39933e-04
        254    22  -11.475020  -11.469951 5.068835e-03   0.100 1.25315e-02 1.22258e-04
        255    21  -11.474924  -11.469888 5.036803e-03   0.100 1.24499e-02 1.12505e-04
        256    25  -11.474827  -11.469829 4.997861e-03   0.100 1.23621e-02 1.04305e-04
        257    25  -11.474728  -11.469784 4.943753e-03   0.100 1.22810e-02 9.28907e-05
        258    26  -11.474645  -11.469760 4.884970e-03   0.100 1.22201e-02 7.88856e-05
        259    25  -11.474587  -11.469753 4.833767e-03   0.100 1.21877e-02 6.79399e-05
        260    25  -11.474559  -11.469757 4.802388e-03   0.100 1.21882e-02 6.64489e-05
        261    25  -11.474560  -11.469761 4.799855e-03   0.100 1.22221e-02 7.34122e-05
        262    25  -11.474585  -11.469756 4.829422e-03   0.100 1.22856e-02 8.17528e-05
        263    25  -11.474626  -11.469737 4.888188e-03   0.100 1.23695e-02 8.61040e-05
        264    25  -11.474672  -11.469704 4.968409e-03   0.100 1.24606e-02 8.45300e-05
        265    25  -11.474717  -11.469657 5.059829e-03   0.100 1.25438e-02 7.74762e-05
        266    26  -11.474754  -11.469602 5.152236e-03   0.100 1.26064e-02 6.68209e-05
        267    25  -11.474781  -11.469544 5.236896e-03   0.100 1.26406e-02 5.53033e-05
        268    25  -11.474797  -11.469489 5.308309e-03   0.100 1.26441e-02 4.61648e-05
        269    25  -11.474804  -11.469440 5.363292e-03   0.100 1.26197e-02 4.22588e-05
        270    26  -11.474804  -11.469402 5.401524e-03   0.100 1.25731e-02 4.39353e-05
        271    25  -11.474799  -11.469375 5.424094e-03   0.100 1.25115e-02 4.87244e-05
        272    26  -11.474793  -11.469360 5.433082e-03   0.100 1.24418e-02 5.39465e-05
        273    25  -11.474787  -11.469357 5.430880e-03   0.100 1.23700e-02 5.80027e-05
        274    26  -11.474782  -11.469362 5.419811e-03   0.100 1.22373e-02 8.60423e-05
        275    25  -11.474777  -11.469396 5.380883e-03   0.100 1.20571e-02 1.13469e-04
        276    25  -11.474751  -11.469464 5.287877e-03   0.100 1.17117e-02 1.52976e-04
        277    21  -11.474690  -11.469592 5.097909e-03   0.100 1.12848e-02 2.76549e-04
        278    21  -11.474619  -11.469819 4.800360e-03   0.100 1.09979e-02 2.13849e-04
        279    22  -11.474576  -11.469966 4.610069e-03   0.100 1.08336e-02 2.09357e-04
        280    21  -11.474536  -11.470094 4.442034e-03   0.100 1.07661e-02 2.00158e-04
        281    21  -11.474497  -11.470192 4.304896e-03   0.100 1.07707e-02 1.91584e-04
        282    22  -11.474447  -11.470256 4.190588e-03   0.100 1.08145e-02 1.80901e-04
        283    21  -11.474363  -11.470284 4.079109e-03   0.100 1.08567e-02 1.66864e-04
        284    22  -11.474251  -11.470280 3.970828e-03   0.100 1.08729e-02 1.51877e-04
        285    21  -11.474120  -11.470257 3.863404e-03   0.100 1.08556e-02 1.38896e-04
        286    22  -11.473969  -11.470224 3.745762e-03   0.100 1.08161e-02 1.28744e-04
        287    22  -11.473812  -11.470188 3.624169e-03   0.100 1.07748e-02 1.20458e-04
        288    23  -11.473666  -11.470151 3.515427e-03   0.100 1.07512e-02 1.13166e-04
        289    23  -11.473532  -11.470110 3.421867e-03   0.100 1.07536e-02 1.06849e-04
        290    22  -11.473420  -11.470060 3.360090e-03   0.100 1.07851e-02 1.01711e-04
        291    22  -11.473340  -11.469996 3.344247e-03   0.100 1.08432e-02 9.74731e-05
        292    23  -11.473289  -11.469914 3.375116e-03   0.100 1.09191e-02 9.33735e-05
        293    23  -11.473268  -11.469815 3.453178e-03   0.100 1.10030e-02 8.85798e-05
        294    22  -11.473260  -11.469701 3.559058e-03   0.100 1.10807e-02 8.25025e-05
        295    23  -11.473282  -11.469577 3.704848e-03   0.100 1.11475e-02 7.49746e-05
        296    22  -11.473304  -11.469449 3.854174e-03   0.100 1.11891e-02 6.64243e-05
        297    23  -11.473341  -11.469324 4.017079e-03   0.100 1.12051e-02 5.81543e-05
        298    23  -11.473386  -11.469206 4.179354e-03   0.100 1.11918e-02 5.24416e-05
        299    23  -11.473428  -11.469101 4.326912e-03   0.100 1.11476e-02 5.16630e-05
        300    23  -11.473477  -11.469013 4.464040e-03   0.100 1.10780e-02 5.61601e-05
        301    23  -11.473518  -11.468943 4.575080e-03   0.100 1.09851e-02 6.37585e-05
        302    22  -11.473554  -11.468893 4.661071e-03   0.100 1.08766e-02 7.17538e-05
        303    25  -11.473598  -11.468865 4.732690e-03   0.100 1.07617e-02 7.81964e-05
        304    23  -11.473630  -11.468856 4.773997e-03   0.100 1.06459e-02 8.19705e-05
        305    23  -11.473658  -11.468868 4.790744e-03   0.100 1.05345e-02 8.25986e-05
        306    25  -11.473690  -11.468897 4.793725e-03   0.100 1.04341e-02 8.00453e-05
        307    25  -11.473714  -11.468939 4.775033e-03   0.100 1.03472e-02 7.45811e-05
        308    22  -11.473728  -11.468993 4.735509e-03   0.100 1.02744e-02 6.67213e-05
        309    25  -11.473746  -11.469057 4.688570e-03   0.100 1.02162e-02 5.70789e-05
        310    25  -11.473753  -11.469125 4.628039e-03   0.100 1.01726e-02 4.64450e-05
        311    22  -11.473750  -11.469195 4.554876e-03   0.100 1.01420e-02 3.58668e-05
        312    22  -11.473743  -11.469267 4.475692e-03   0.100 1.01222e-02 2.68479e-05
        313    22  -11.473727  -11.469336 4.391005e-03   0.100 1.01125e-02 2.19190e-05
        314    23  -11.473699  -11.469400 4.299060e-03   0.100 1.01107e-02 2.30139e-05
        315    23  -11.473668  -11.469458 4.210594e-03   0.100 1.01169e-02 2.81667e-05
        316    22  -11.473627  -11.469508 4.118865e-03   0.100 1.01281e-02 3.42897e-05
        317    22  -11.473582  -11.469550 4.031630e-03   0.100 1.01440e-02 3.97573e-05
        318    22  -11.473536  -11.469584 3.952165e-03   0.100 1.01633e-02 4.39195e-05
        319    25  -11.473482  -11.469608 3.874107e-03   0.100 1.01824e-02 4.65871e-05
        320    25  -11.473426  -11.469622 3.804142e-03   0.100 1.02018e-02 4.78009e-05
        321    23  -11.473363  -11.469626 3.736982e-03   0.100 1.02182e-02 4.77993e-05
        322    22  -11.473306  -11.469623 3.683780e-03   0.100 1.02311e-02 4.68566e-05
        323    23  -11.473253  -11.469610 3.642795e-03   0.100 1.02397e-02 4.53099e-05
        324    23  -11.473203  -11.469591 3.612079e-03   0.100 1.02427e-02 4.34498e-05
        325    23  -11.473151  -11.469564 3.586753e-03   0.100 1.02384e-02 4.14886e-05
        326    22  -11.473102  -11.469532 3.570441e-03   0.100 1.02273e-02 3.95261e-05
        327    22  -11.473058  -11.469495 3.563041e-03   0.100 1.02097e-02 3.75487e-05
        328    23  -11.473018  -11.469455 3.563120e-03   0.100 1.01863e-02 3.54649e-05
        329    22  -11.472986  -11.469413 3.572590e-03   0.100 1.01585e-02 3.31590e-05
        330    23  -11.472957  -11.469371 3.585877e-03   0.100 1.01263e-02 3.05445e-05
        331    22  -11.472930  -11.469329 3.600460e-03   0.100 1.00907e-02 2.76116e-05
        332    22  -11.472901  -11.469288 3.612512e-03   0.100 1.00519e-02 2.44566e-05
        333    22  -11.472885  -11.469249 3.636059e-03   0.100 1.00141e-02 2.13099e-05
        334    22  -11.472871  -11.469213 3.658304e-03   0.100 9.97592e-03 1.85671e-05
        335    22  -11.472859  -11.469180 3.679297e-03   0.100 9.93821e-03 1.67634e-05
        336    22  -11.472847  -11.469150 3.697077e-03   0.100 9.90126e-03 1.63600e-05
        337    23  -11.472842  -11.469124 3.718197e-03   0.100 9.86685e-03 1.73657e-05
        338    22  -11.472836  -11.469102 3.733951e-03   0.100 9.83379e-03 1.92993e-05
        339    22  -11.472841  -11.469084 3.757737e-03   0.100 9.80472e-03 2.15517e-05
        340    22  -11.472837  -11.469069 3.767464e-03   0.100 9.77560e-03 2.36567e-05
        341    22  -11.472841  -11.469058 3.782334e-03   0.100 9.74970e-03 2.53132e-05
        342    22  -11.472844  -11.469051 3.792898e-03   0.100 9.72521e-03 2.63570e-05
        343    22  -11.472845  -11.469047 3.797239e-03   0.100 9.70136e-03 2.67280e-05
        344    23  -11.472850  -11.469047 3.802891e-03   0.100 9.67915e-03 2.64472e-05
        345    23  -11.472849  -11.469050 3.799018e-03   0.100 9.65625e-03 2.56080e-05
        346    22  -11.472850  -11.469055 3.794930e-03   0.100 9.63390e-03 2.43635e-05
        347    21  -11.472842  -11.469063 3.778467e-03   0.100 9.60958e-03 2.29234e-05
        348    22  -11.472839  -11.469073 3.765316e-03   0.100 9.58597e-03 2.15266e-05
        349    20  -11.472828  -11.469086 3.741999e-03   0.100 9.56044e-03 2.04353e-05
        350    22  -11.472817  -11.469100 3.717612e-03   0.100 9.53463e-03 1.98545e-05
        351    21  -11.472799  -11.469114 3.684163e-03   0.100 9.50707e-03 1.98954e-05
        352    22  -11.472780  -11.469130 3.650292e-03   0.100 9.47951e-03 2.05104e-05
        353    22  -11.472759  -11.469146 3.613140e-03   0.100 9.45154e-03 2.15536e-05
        354    22  -11.472734  -11.469161 3.572765e-03   0.100 9.42341e-03 2.28359e-05
        355    21  -11.472704  -11.469176 3.528234e-03   0.100 9.39504e-03 2.41859e-05
        356    22  -11.472669  -11.469189 3.479074e-03   0.100 9.36667e-03 2.54695e-05
        357    21  -11.472640  -11.469201 3.439294e-03   0.100 9.34059e-03 2.66065e-05
        358    22  -11.472606  -11.469211 3.395285e-03   0.100 9.31480e-03 2.75486e-05
        359    21  -11.472573  -11.469219 3.354576e-03   0.100 9.29035e-03 2.82822e-05
        360    21  -11.472533  -11.469223 3.309187e-03   0.100 9.26584e-03 2.88030e-05
        361    22  -11.472494  -11.469226 3.268022e-03   0.100 9.24268e-03 2.91157e-05
        362    21  -11.472455  -11.469225 3.230619e-03   0.100 9.22046e-03 2.92346e-05
        363    21  -11.472417  -11.469221 3.196571e-03   0.100 9.19895e-03 2.91686e-05
        364    23  -11.472382  -11.469214 3.167547e-03   0.100 9.17833e-03 2.89283e-05
        365    21  -11.472345  -11.469205 3.140088e-03   0.100 9.15752e-03 2.85311e-05
        366    22  -11.472310  -11.469193 3.116944e-03   0.100 9.13685e-03 2.79924e-05
        367    21  -11.472277  -11.469179 3.098339e-03   0.100 9.11594e-03 2.73413e-05
        368    21  -11.472243  -11.469163 3.080743e-03   0.100 9.09405e-03 2.66113e-05
        369    22  -11.472219  -11.469145 3.073664e-03   0.100 9.07262e-03 2.58445e-05
        370    21  -11.472191  -11.469126 3.064226e-03   0.100 9.04935e-03 2.50967e-05
        371    21  -11.472163  -11.469107 3.056405e-03   0.100 9.02474e-03 2.44204e-05
        372    21  -11.472142  -11.469087 3.054734e-03   0.100 8.99949e-03 2.38659e-05
        373    21  -11.472120  -11.469068 3.051894e-03   0.100 8.97249e-03 2.34731e-05
        374    22  -11.472104  -11.469049 3.054935e-03   0.100 8.94501e-03 2.32600e-05
        375    21  -11.472084  -11.469031 3.053095e-03   0.100 8.91552e-03 2.32317e-05
        376    21  -11.472067  -11.469014 3.052853e-03   0.100 8.88516e-03 2.33631e-05
        377    22  -11.472052  -11.468998 3.053678e-03   0.100 8.85418e-03 2.36161e-05
        378    21  -11.472037  -11.468985 3.052214e-03   0.100 8.82221e-03 2.39530e-05
        379    22  -11.472019  -11.468973 3.046749e-03   0.100 8.78945e-03 2.43266e-05
        380    21  -11.472014  -11.468963 3.050834e-03   0.100 8.75804e-03 2.47038e-05
        381    21  -11.472003  -11.468955 3.047873e-03   0.100 8.72598e-03 2.50588e-05
        382    22  -11.471988  -11.468949 3.038698e-03   0.100 8.69345e-03 2.53770e-05
        383    21  -11.471977  -11.468945 3.032574e-03   0.100 8.66188e-03 2.56583e-05
        384    21  -11.471962  -11.468942 3.019734e-03   0.100 8.63025e-03 2.59058e-05
        385    21  -11.471951  -11.468941 3.009963e-03   0.100 8.59989e-03 2.61301e-05
        386    22  -11.471937  -11.468942 2.995096e-03   0.100 8.56989e-03 2.63439e-05
        387    21  -11.471922  -11.468943 2.979201e-03   0.100 8.54061e-03 2.65655e-05
        388    21  -11.471908  -11.468946 2.962230e-03   0.100 8.51219e-03 2.68036e-05
        389    22  -11.471890  -11.468949 2.940755e-03   0.100 8.48414e-03 2.70645e-05
        390    21  -11.471874  -11.468953 2.921202e-03   0.100 8.45705e-03 2.73566e-05
        391    21  -11.471856  -11.468956 2.899480e-03   0.100 8.43044e-03 2.76783e-05
        392    21  -11.471837  -11.468960 2.876733e-03   0.100 8.40436e-03 2.80257e-05
        393    21  -11.471813  -11.468964 2.849237e-03   0.100 8.37804e-03 2.83923e-05
        394    21  -11.471794  -11.468967 2.827361e-03   0.100 8.35298e-03 2.87696e-05
        395    21  -11.471773  -11.468970 2.803520e-03   0.100 8.32794e-03 2.91476e-05
        396    21  -11.471748  -11.468972 2.775825e-03   0.100 8.30245e-03 2.95162e-05
        397    21  -11.471725  -11.468973 2.752003e-03   0.100 8.27757e-03 2.98647e-05
        398    21  -11.471700  -11.468973 2.726459e-03   0.100 8.25240e-03 3.01837e-05
        399    21  -11.471677  -11.468973 2.704088e-03   0.100 8.22763e-03 3.04631e-05
        400    21  -11.471653  -11.468971 2.681650e-03   0.100 8.19315e-03 3.42244e-05
        401    21  -11.471628  -11.468976 2.651928e-03   0.100 8.16188e-03 5.66997e-05
        402    21  -11.471617  -11.468994 2.622555e-03   0.100 8.16238e-03 4.17813e-05
        403    21  -11.471606  -11.468982 2.623913e-03   0.100 8.15896e-03 3.91524e-05
        404    21  -11.471591  -11.468965 2.625973e-03   0.100 8.14823e-03 3.52901e-05
        405    21  -11.471570  -11.468946 2.623893e-03   0.100 8.12862e-03 3.29831e-05
        406    22  -11.471544  -11.468927 2.617043e-03   0.100 8.10107e-03 3.22151e-05
        407    21  -11.471518  -11.468910 2.607811e-03   0.100 8.06791e-03 3.18814e-05
        408    21  -11.471493  -11.468899 2.594525e-03   0.100 8.03258e-03 3.14373e-05
        409    21  -11.471469  -11.468891 2.578174e-03   0.100 7.99810e-03 3.08902e-05
        410    21  -11.471450  -11.468887 2.563406e-03   0.100 7.96734e-03 3.03687e-05
        411    21  -11.471433  -11.468883 2.549503e-03   0.100 7.94087e-03 2.99492e-05
        412    21  -11.471418  -11.468880 2.538151e-03   0.100 7.91824e-03 2.96462e-05
        413    22  -11.471409  -11.468874 2.534732e-03   0.100 7.89896e-03 2.94412e-05
        414    21  -11.471397  -11.468866 2.530519e-03   0.100 7.88005e-03 2.93294e-05
        415    21  -11.471386  -11.468857 2.529071e-03   0.100 7.86068e-03 2.93151e-05
        416    22  -11.471374  -11.468846 2.528156e-03   0.100 7.83988e-03 2.93999e-05
        417    21  -11.471362  -11.468835 2.526967e-03   0.100 7.81739e-03 2.95634e-05
        418    21  -11.471349  -11.468826 2.523038e-03   0.100 7.79336e-03 2.97515e-05
        419    21  -11.471338  -11.468818 2.520836e-03   0.100 7.76919e-03 2.99157e-05
        420    22  -11.471323  -11.468811 2.511999e-03   0.100 7.74443e-03 3.00300e-05
        421    21  -11.471312  -11.468806 2.505693e-03   0.100 7.72063e-03 3.00995e-05
        422    21  -11.471302  -11.468803 2.498956e-03   0.100 7.69790e-03 3.01311e-05
        423    21  -11.471289  -11.468800 2.489690e-03   0.100 7.67574e-03 3.01331e-05
        424    22  -11.471279  -11.468797 2.482324e-03   0.100 7.65491e-03 3.01047e-05
        425    21  -11.471271  -11.468795 2.476258e-03   0.100 7.63466e-03 3.00593e-05
        426    21  -11.471261  -11.468792 2.468938e-03   0.100 7.61473e-03 3.00044e-05
        427    21  -11.471252  -11.468790 2.462620e-03   0.100 7.59515e-03 2.99545e-05
        428    22  -11.471242  -11.468787 2.454944e-03   0.100 7.57564e-03 2.99180e-05
        429    21  -11.471232  -11.468785 2.446975e-03   0.100 7.55613e-03 2.99073e-05
        430    21  -11.471221  -11.468783 2.438313e-03   0.100 7.53676e-03 2.99179e-05
        431    21  -11.471209  -11.468781 2.428192e-03   0.100 7.51736e-03 2.99440e-05
        432    22  -11.471201  -11.468779 2.421164e-03   0.100 7.49868e-03 2.99732e-05
        433    21  -11.471187  -11.468778 2.408868e-03   0.100 7.47974e-03 3.00052e-05
        434    21  -11.471174  -11.468776 2.398056e-03   0.100 7.46126e-03 3.00313e-05
        435    21  -11.471166  -11.468775 2.391416e-03   0.100 7.44374e-03 3.00487e-05
        436    22  -11.471150  -11.468773 2.376333e-03   0.100 7.42539e-03 3.00532e-05
        437    20  -11.471136  -11.468771 2.364798e-03   0.100 7.40766e-03 3.00501e-05
        438    20  -11.471125  -11.468769 2.355668e-03   0.100 7.39046e-03 3.00358e-05
        439    21  -11.471114  -11.468767 2.347145e-03   0.100 7.37387e-03 3.00107e-05
        440    22  -11.471102  -11.468764 2.337549e-03   0.100 7.35723e-03 2.99715e-05
        441    20  -11.471095  -11.468761 2.334087e-03   0.100 7.34171e-03 2.99260e-05
        442    21  -11.471076  -11.468757 2.318847e-03   0.100 7.32463e-03 2.98709e-05
        443    21  -11.471063  -11.468753 2.309741e-03   0.100 7.30843e-03 2.98080e-05
        444    22  -11.471052  -11.468749 2.302619e-03   0.100 7.29290e-03 2.97348e-05
        445    21  -11.471042  -11.468744 2.297905e-03   0.100 7.27755e-03 2.96591e-05
        446    21  -11.471028  -11.468739 2.288639e-03   0.100 7.26174e-03 2.95784e-05
        447    21  -11.471021  -11.468734 2.286980e-03   0.100 7.24711e-03 2.94942e-05
        448    21  -11.471009  -11.468729 2.280088e-03   0.100 7.23181e-03 2.94079e-05
        449    22  -11.471000  -11.468723 2.276978e-03   0.100 7.21724e-03 2.93160e-05
        450    21  -11.470990  -11.468717 2.272848e-03   0.100 7.20259e-03 2.92280e-05
        451    20  -11.470981  -11.468711 2.269516e-03   0.100 7.18805e-03 2.91412e-05
        452    21  -11.470972  -11.468706 2.266206e-03   0.100 7.17372e-03 2.90563e-05
        453    22  -11.470963  -11.468700 2.263626e-03   0.100 7.15970e-03 2.89717e-05
        454    20  -11.470952  -11.468694 2.257860e-03   0.100 7.14512e-03 2.88940e-05
        455    21  -11.470949  -11.468688 2.260818e-03   0.100 7.13200e-03 2.88190e-05
        456    21  -11.470944  -11.468683 2.261162e-03   0.100 7.11870e-03 2.87483e-05
        457    22  -11.470935  -11.468677 2.257991e-03   0.100 7.10523e-03 2.86770e-05
        458    20  -11.470925  -11.468672 2.253272e-03   0.100 7.09138e-03 2.86129e-05
        459    21  -11.470925  -11.468667 2.258270e-03   0.100 7.07918e-03 2.85501e-05
        460    21  -11.470916  -11.468662 2.254418e-03   0.100 7.06589e-03 2.84887e-05
        461    21  -11.470913  -11.468657 2.255655e-03   0.100 7.05350e-03 2.84284e-05
        462    22  -11.470910  -11.468653 2.257012e-03   0.100 7.04132e-03 2.83626e-05
        463    21  -11.470904  -11.468649 2.255233e-03   0.100 7.02894e-03 2.82991e-05
        464    21  -11.470899  -11.468645 2.254452e-03   0.100 7.01679e-03 2.82329e-05
        465    21  -11.470895  -11.468641 2.253891e-03   0.100 7.00484e-03 2.81640e-05
        466    22  -11.470891  -11.468638 2.252937e-03   0.100 6.99306e-03 2.80879e-05
        467    20  -11.470891  -11.468634 2.256741e-03   0.100 6.98212e-03 2.80116e-05
        468    21  -11.470881  -11.468631 2.249361e-03   0.100 6.96980e-03 2.79311e-05
        469    21  -11.470877  -11.468629 2.248328e-03   0.100 6.95849e-03 2.78477e-05
        470    22  -11.470872  -11.468626 2.246498e-03   0.100 6.94728e-03 2.77574e-05
        471    20  -11.470871  -11.468623 2.247168e-03   0.100 6.93666e-03 2.76686e-05
        472    21  -11.470863  -11.468621 2.241861e-03   0.100 6.92526e-03 2.75774e-05
        473    21  -11.470853  -11.468619 2.234693e-03   0.100 6.91372e-03 2.74850e-05
        474    22  -11.470852  -11.468616 2.235776e-03   0.100 6.90362e-03 2.73881e-05
        475    21  -11.470847  -11.468614 2.233273e-03   0.100 6.89306e-03 2.72940e-05
        476    21  -11.470842  -11.468612 2.230111e-03   0.100 6.88260e-03 2.71993e-05
        477    21  -11.470836  -11.468610 2.225745e-03   0.100 6.87206e-03 2.71049e-05
        478    22  -11.470831  -11.468608 2.223963e-03   0.100 6.86207e-03 2.70064e-05
        479    21  -11.470826  -11.468605 2.221142e-03   0.100 6.85203e-03 2.69118e-05
        480    21  -11.470823  -11.468603 2.220348e-03   0.100 6.84240e-03 2.68172e-05
        481    21  -11.470815  -11.468600 2.214703e-03   0.100 6.83214e-03 2.67234e-05
        482    22  -11.470809  -11.468598 2.211790e-03   0.100 6.82237e-03 2.66262e-05
        483    21  -11.470803  -11.468595 2.208681e-03   0.100 6.81269e-03 2.65328e-05
        484    21  -11.470797  -11.468592 2.205130e-03   0.100 6.80299e-03 2.64394e-05
        485    21  -11.470792  -11.468589 2.203486e-03   0.100 6.79362e-03 2.63466e-05
        486    22  -11.470786  -11.468586 2.200284e-03   0.100 6.78420e-03 2.62500e-05
        487    21  -11.470781  -11.468582 2.198292e-03   0.100 6.77489e-03 2.61574e-05
        488    21  -11.470775  -11.468579 2.196231e-03   0.100 6.76566e-03 2.60649e-05
        489    21  -11.470771  -11.468575 2.196118e-03   0.100 6.75675e-03 2.59730e-05
        490    22  -11.470736  -11.468572 2.164951e-03   0.100 6.72689e-03 3.18411e-05
        491    20  -11.470663  -11.468589 2.074569e-03   0.100 6.68208e-03 3.94890e-05
        492    20  -11.470629  -11.468613 2.016769e-03   0.100 6.65921e-03 4.32467e-05
        493    21  -11.470596  -11.468629 1.967649e-03   0.100 6.64513e-03 4.53697e-05
        494    22  -11.470580  -11.468634 1.945607e-03   0.100 6.63861e-03 4.63142e-05
        495    21  -11.470565  -11.468625 1.939520e-03   0.100 6.63413e-03 4.65785e-05
        496    21  -11.470556  -11.468604 1.952353e-03   0.100 6.62813e-03 4.65005e-05
        497    21  -11.470544  -11.468575 1.969557e-03   0.100 6.61698e-03 4.62416e-05
        498    21  -11.470531  -11.468544 1.987287e-03   0.100 6.60073e-03 4.57242e-05
        499    21  -11.470516  -11.468517 1.999415e-03   0.100 6.58093e-03 4.47092e-05

        ==> Orbital Optimization <==


        iter       Energy        dE       |g|     r
           0  -132.635698 -3.53e-02  1.51e-01 1.000
           1  -132.638077 -2.38e-03  6.67e-02 0.700
           2  -132.638553 -4.76e-04  3.68e-02 0.490
           3  -132.638800 -2.47e-04  2.52e-02 0.588
           4  -132.638911 -1.11e-04  1.57e-02 0.706
           5  -132.638957 -4.57e-05  8.66e-03 0.847
           6  -132.638977 -2.00e-05  4.07e-03 1.016
           7  -132.638987 -1.00e-05  1.64e-03 1.219
           8  -132.638992 -5.03e-06  6.96e-04 1.463
           9  -132.638994 -2.15e-06  3.86e-04 1.756

            Orbital Optimization did not converge in  10 iterations 
            Total energy change: -3.859674e-02
            Final gradient norm: 3.861890e-04

            Total energy:    -109.066554725153


    initial primal energy:     -11.470178117655

      oiter iiter        E(p)        E(d)       E(gap)      mu      eps(p)      eps(d)
        500    42  -11.472136  -10.997740 4.743966e-01  14.719 1.04083e-02 1.94236e-01
        501    24  -11.474969  -11.180731 2.942384e-01  14.719 1.26627e-02 1.43083e-01
        502    24  -11.476349  -11.403711 7.263788e-02  14.719 1.26182e-02 1.09791e-01
        503    22  -11.476635  -11.550414 7.377836e-02  14.719 1.14439e-02 9.94028e-02
        504    21  -11.478127  -11.609534 1.314074e-01  14.719 9.06909e-03 1.03854e-01
        505    25  -11.478711  -11.662866 1.841545e-01  14.719 8.26618e-03 1.03448e-01
        506    25  -11.477862  -11.690379 2.125166e-01  14.719 7.72872e-03 1.02644e-01
        507    26  -11.476166  -11.716958 2.407924e-01  14.719 6.69802e-03 1.01560e-01
        508    26  -11.474520  -11.765199 2.906791e-01  14.719 5.77830e-03 1.00791e-01
        509    25  -11.473341  -11.843613 3.702719e-01  14.719 5.13751e-03 9.62506e-02
        510    27  -11.472362  -11.893687 4.213255e-01  14.719 4.51875e-03 9.34809e-02
        511    26  -11.471780  -11.929427 4.576465e-01  14.719 3.87061e-03 9.20606e-02
        512    27  -11.471474  -11.947134 4.756601e-01  14.719 3.31983e-03 9.12905e-02
        513    25  -11.471226  -11.939333 4.681069e-01  14.719 3.00373e-03 9.01883e-02
        514    28  -11.471023  -11.915216 4.441933e-01  14.719 2.94042e-03 8.83227e-02
        515    27  -11.470881  -11.881104 4.102231e-01  14.719 3.04384e-03 8.59084e-02
        516    28  -11.470790  -11.843494 3.727044e-01  14.719 3.28572e-03 8.26933e-02
        517    25  -11.470707  -11.798359 3.276518e-01  14.719 3.52442e-03 7.92531e-02
        518    28  -11.470655  -11.751031 2.803762e-01  14.719 3.73574e-03 7.55330e-02
        519    28  -11.470659  -11.704654 2.339949e-01  14.719 3.92434e-03 7.16738e-02
        520    28  -11.470733  -11.661189 1.904560e-01  14.719 4.08053e-03 6.78952e-02
        521    25  -11.470876  -11.621176 1.502995e-01  14.719 4.17716e-03 6.44932e-02
        522    28  -11.471079  -11.584582 1.135034e-01  14.719 4.17147e-03 6.18441e-02
        523    26  -11.471351  -11.551740 8.038895e-02  14.719 4.03884e-03 6.06489e-02
        524    26  -11.471716  -11.527192 5.547661e-02  14.719 3.82116e-03 5.99442e-02
        525    25  -11.472118  -11.504827 3.270916e-02  14.719 3.37201e-03 6.05790e-02
        526    27  -11.472472  -11.490424 1.795218e-02  14.719 2.90503e-03 6.07356e-02
        527    27  -11.472829  -11.476346 3.517557e-03  14.719 2.53542e-03 6.10952e-02
        528    25  -11.473268  -11.462699 1.056942e-02  14.719 2.40323e-03 6.05617e-02
        529    25  -11.473732  -11.443768 2.996390e-02  14.719 2.40883e-03 5.99963e-02
        530    27  -11.474203  -11.429867 4.433596e-02  14.719 2.53226e-03 5.87339e-02
        531    26  -11.474648  -11.418658 5.599010e-02  14.719 2.63254e-03 5.73371e-02
        532    26  -11.475056  -11.410271 6.478475e-02  14.719 2.66258e-03 5.60416e-02
        533    25  -11.475432  -11.407209 6.822295e-02  14.719 2.64214e-03 5.47814e-02
        534    26  -11.475790  -11.409628 6.616191e-02  14.719 2.66706e-03 5.26159e-02
        535    27  -11.476157  -11.428518 4.763856e-02  14.719 2.80465e-03 4.92071e-02
        536    28  -11.476520  -11.453054 2.346674e-02  14.719 2.93614e-03 4.62739e-02
        537    25  -11.476831  -11.477729 8.983639e-04  14.719 3.03657e-03 4.41618e-02
        538    28  -11.477067  -11.500640 2.357261e-02  14.719 3.09739e-03 4.26628e-02
        539    25  -11.477206  -11.519910 4.270389e-02  14.719 3.11225e-03 4.17103e-02
        540    28  -11.477261  -11.536093 5.883156e-02  14.719 3.08605e-03 4.10735e-02
        541    26  -11.477251  -11.549648 7.239703e-02  14.719 3.02571e-03 4.04846e-02
        542    25  -11.477200  -11.561205 8.400528e-02  14.719 2.94162e-03 3.99352e-02
        543    26  -11.477127  -11.571983 9.485572e-02  14.719 2.85592e-03 3.91432e-02
        544    25  -11.477048  -11.578933 1.018851e-01  14.719 2.78206e-03 3.82364e-02
        545    26  -11.476970  -11.582686 1.057158e-01  14.719 2.73187e-03 3.72052e-02
        546    26  -11.476895  -11.583397 1.065023e-01  14.719 2.70787e-03 3.61351e-02
        547    27  -11.476673  -11.582643 1.059699e-01  14.719 2.47479e-03 3.52681e-02
        548    25  -11.476561  -11.582986 1.064245e-01  14.719 2.41737e-03 3.42471e-02
        549    25  -11.476470  -11.579944 1.034744e-01  14.719 2.37201e-03 3.34704e-02
        550    24  -11.476402  -11.575190 9.878867e-02  14.719 2.34211e-03 3.27905e-02
        551    25  -11.476356  -11.568971 9.261493e-02  14.719 2.31097e-03 3.22494e-02
        552    24  -11.476325  -11.563548 8.722278e-02  14.719 2.31996e-03 3.15263e-02
        553    25  -11.476298  -11.557503 8.120473e-02  14.719 2.35100e-03 3.07080e-02
        554    24  -11.476277  -11.548173 7.189633e-02  14.719 2.37837e-03 3.00711e-02
        555    26  -11.476268  -11.538500 6.223267e-02  14.719 2.40043e-03 2.94351e-02
        556    25  -11.476275  -11.529222 5.294702e-02  14.719 2.42010e-03 2.87540e-02
        557    24  -11.476302  -11.520800 4.449827e-02  14.719 2.44073e-03 2.80030e-02
        558    25  -11.476346  -11.513507 3.716110e-02  14.719 2.46606e-03 2.71715e-02
        559    24  -11.476398  -11.508475 3.207704e-02  14.719 2.50098e-03 2.62488e-02
        560    25  -11.476453  -11.504718 2.826516e-02  14.719 2.54393e-03 2.53040e-02
        561    24  -11.476449  -11.502125 2.567588e-02  14.719 2.55216e-03 2.45742e-02
        562    25  -11.476447  -11.503879 2.743154e-02  14.719 2.54977e-03 2.38472e-02
        563    23  -11.476462  -11.505436 2.897448e-02  14.719 2.53387e-03 2.33642e-02
        564    23  -11.476478  -11.507321 3.084241e-02  14.719 2.49222e-03 2.30257e-02
        565    22  -11.476494  -11.509362 3.286751e-02  14.719 2.42199e-03 2.28052e-02
        566    25  -11.476512  -11.511440 3.492827e-02  14.719 2.32415e-03 2.26810e-02
        567    25  -11.476529  -11.513499 3.696978e-02  14.719 2.20158e-03 2.26283e-02
        568    26  -11.476547  -11.515538 3.899025e-02  14.719 2.05867e-03 2.26196e-02
        569    26  -11.476565  -11.517551 4.098559e-02  14.719 1.90029e-03 2.26325e-02
        570    25  -11.476582  -11.519677 4.309452e-02  14.719 1.72542e-03 2.26519e-02
        571    27  -11.476598  -11.522048 4.544966e-02  14.719 1.54024e-03 2.27885e-02
        572    25  -11.476613  -11.525225 4.861256e-02  14.719 1.33887e-03 2.27408e-02
        573    27  -11.476616  -11.527571 5.095508e-02  14.719 1.15886e-03 2.26327e-02
        574    26  -11.476609  -11.528396 5.178727e-02  14.719 1.00554e-03 2.25146e-02
        575    27  -11.476593  -11.527904 5.131038e-02  14.719 8.81862e-04 2.23554e-02
        576    25  -11.476576  -11.527004 5.042859e-02  14.719 7.84500e-04 2.21510e-02
        577    27  -11.476560  -11.526360 4.979971e-02  14.719 7.16304e-04 2.19065e-02
        578    26  -11.476524  -11.526320 4.979512e-02  14.719 6.53183e-04 2.15989e-02
        579    27  -11.476497  -11.526400 4.990322e-02  14.719 6.27031e-04 2.12337e-02
        580    21  -11.476481  -11.526704 5.022220e-02  14.719 6.28289e-04 2.08091e-02
        581    22  -11.476474  -11.527602 5.112714e-02  14.719 6.53213e-04 2.03303e-02
        582    22  -11.476473  -11.529052 5.257898e-02  14.719 6.93356e-04 1.97849e-02
        583    25  -11.476440  -11.530294 5.385397e-02  14.719 7.25571e-04 1.91885e-02
        584    25  -11.476411  -11.531775 5.536475e-02  14.719 7.68991e-04 1.85662e-02
        585    27  -11.476395  -11.533132 5.673676e-02  14.719 8.11702e-04 1.79573e-02
        586    26  -11.476378  -11.534087 5.770888e-02  14.719 8.47270e-04 1.74041e-02
        587    26  -11.476360  -11.534650 5.829018e-02  14.719 8.72941e-04 1.69364e-02
        588    25  -11.476342  -11.534776 5.843408e-02  14.719 8.87092e-04 1.65729e-02
        589    25  -11.476327  -11.534452 5.812537e-02  14.719 8.89060e-04 1.63178e-02
        590    26  -11.476316  -11.533695 5.737928e-02  14.719 8.79000e-04 1.61626e-02
        591    26  -11.476299  -11.532549 5.625065e-02  14.719 8.58515e-04 1.60770e-02
        592    26  -11.476290  -11.531751 5.546119e-02  14.719 8.30457e-04 1.60308e-02
        593    26  -11.476264  -11.530612 5.434761e-02  14.719 7.98737e-04 1.59761e-02
        594    25  -11.476241  -11.529884 5.364224e-02  14.719 7.72692e-04 1.59044e-02
        595    25  -11.476235  -11.529023 5.278737e-02  14.719 7.35850e-04 1.58435e-02
        596    25  -11.476231  -11.527504 5.127304e-02  14.719 6.94747e-04 1.57593e-02
        597    25  -11.476234  -11.526106 4.987167e-02  14.719 6.53679e-04 1.56402e-02
        598    26  -11.476248  -11.524492 4.824408e-02  14.719 6.08240e-04 1.54923e-02
        599    25  -11.476263  -11.522262 4.599911e-02  14.719 5.64528e-04 1.53003e-02
        600    25  -11.476280  -11.519790 4.350986e-02  14.719 5.24331e-04 1.50655e-02
        601    25  -11.476297  -11.517231 4.093355e-02  14.719 4.88321e-04 1.47961e-02
        602    25  -11.476314  -11.514611 3.829654e-02  14.719 4.59843e-04 1.44943e-02
        603    25  -11.476329  -11.512087 3.575750e-02  14.719 4.41739e-04 1.41647e-02
        604    25  -11.476345  -11.509775 3.342991e-02  14.719 4.36078e-04 1.38026e-02
        605    25  -11.476361  -11.507916 3.155439e-02  14.719 4.44005e-04 1.34141e-02
        606    25  -11.476380  -11.506516 3.013596e-02  14.719 4.59139e-04 1.30204e-02
        607    26  -11.476403  -11.505300 2.889690e-02  14.719 4.74596e-04 1.26653e-02
        608    25  -11.476427  -11.504075 2.764766e-02  14.719 4.86092e-04 1.23699e-02
        609    25  -11.476452  -11.502770 2.631732e-02  14.719 4.91954e-04 1.21395e-02
        610    27  -11.476478  -11.501335 2.485665e-02  14.719 4.92207e-04 1.19671e-02
        611    25  -11.476503  -11.499769 2.326580e-02  14.719 4.87720e-04 1.18393e-02
        612    25  -11.476527  -11.498111 2.158401e-02  14.719 4.79561e-04 1.17425e-02
        613    26  -11.476550  -11.496424 1.987343e-02  14.719 4.68739e-04 1.16656e-02
        614    25  -11.476573  -11.494778 1.820506e-02  14.719 4.56099e-04 1.16016e-02
        615    27  -11.476594  -11.493242 1.664833e-02  14.719 4.42128e-04 1.15450e-02
        616    25  -11.476615  -11.491957 1.534230e-02  14.719 4.27800e-04 1.14914e-02
        617    27  -11.476637  -11.490964 1.432722e-02  14.719 4.14025e-04 1.14366e-02
        618    25  -11.476660  -11.490215 1.355491e-02  14.719 4.01719e-04 1.13751e-02
        619    25  -11.476684  -11.489713 1.302859e-02  14.719 3.91832e-04 1.13014e-02
        620    26  -11.476708  -11.489455 1.274642e-02  14.719 3.85312e-04 1.12106e-02
        621    25  -11.476733  -11.489439 1.270568e-02  14.719 3.82984e-04 1.10990e-02
        622    22  -11.476758  -11.489661 1.290300e-02  14.719 3.85308e-04 1.09654e-02
        623    23  -11.476781  -11.490116 1.333454e-02  14.719 3.92211e-04 1.08106e-02
        624    22  -11.476803  -11.490797 1.399422e-02  14.719 4.02998e-04 1.06376e-02
        625    22  -11.476823  -11.491693 1.487021e-02  14.719 4.16491e-04 1.04511e-02
        626    24  -11.476840  -11.492787 1.594749e-02  14.719 4.31337e-04 1.02573e-02
        627    25  -11.476854  -11.494046 1.719243e-02  14.719 4.46189e-04 1.00630e-02
        628    23  -11.476864  -11.495431 1.856742e-02  14.719 4.59159e-04 9.87964e-03
        629    23  -11.476871  -11.497054 2.018331e-02  14.719 4.70590e-04 9.70786e-03
        630    23  -11.476874  -11.498679 2.180481e-02  14.719 4.78989e-04 9.56119e-03
        631    23  -11.476874  -11.500247 2.337211e-02  14.719 4.83702e-04 9.44237e-03
        632    23  -11.476872  -11.501744 2.487220e-02  14.719 4.84294e-04 9.35298e-03
        633    23  -11.476866  -11.503133 2.626637e-02  14.719 4.78435e-04 9.30905e-03
        634    25  -11.476859  -11.504787 2.792815e-02  14.719 4.70677e-04 9.26119e-03
        635    26  -11.476850  -11.506030 2.917937e-02  14.719 4.59546e-04 9.24543e-03
        636    22  -11.476840  -11.506942 3.010181e-02  14.719 4.45408e-04 9.23795e-03
        637    23  -11.476830  -11.507557 3.072696e-02  14.719 4.28553e-04 9.22889e-03
        638    23  -11.476817  -11.507891 3.107343e-02  14.719 4.09542e-04 9.20941e-03
        639    23  -11.476804  -11.508083 3.127887e-02  14.719 3.88676e-04 9.17571e-03
        640    23  -11.476793  -11.508069 3.127586e-02  14.719 3.65856e-04 9.12568e-03
        641    22  -11.476782  -11.507789 3.100797e-02  14.719 3.41635e-04 9.05778e-03
        642    25  -11.476771  -11.507278 3.050693e-02  14.719 3.17015e-04 8.97237e-03
        643    22  -11.476762  -11.506564 2.980258e-02  14.719 2.93479e-04 8.87047e-03
        644    25  -11.476754  -11.505685 2.893107e-02  14.719 2.72521e-04 8.75328e-03
        645    22  -11.476749  -11.504691 2.794189e-02  14.719 2.55531e-04 8.62218e-03
        646    22  -11.476745  -11.503623 2.687782e-02  14.719 2.43381e-04 8.47893e-03
        647    22  -11.476744  -11.502533 2.578881e-02  14.719 2.36434e-04 8.32586e-03
        648    22  -11.476744  -11.501458 2.471337e-02  14.719 2.34407e-04 8.16620e-03
        649    25  -11.476746  -11.500425 2.367936e-02  14.719 2.36395e-04 8.00418e-03
        650    22  -11.476749  -11.499455 2.270640e-02  14.719 2.41124e-04 7.84501e-03
        651    25  -11.476752  -11.498548 2.179567e-02  14.719 2.47133e-04 7.69442e-03
        652    26  -11.476757  -11.497705 2.094845e-02  14.719 2.53074e-04 7.55810e-03
        653    22  -11.476747  -11.496916 2.016841e-02  14.719 2.45779e-04 7.45363e-03
        654    24  -11.476747  -11.496670 1.992291e-02  14.719 2.46354e-04 7.35705e-03
        655    25  -11.476749  -11.496254 1.950486e-02  14.719 2.44018e-04 7.29605e-03
        656    24  -11.476751  -11.495717 1.896594e-02  14.719 2.38547e-04 7.25957e-03
        657    22  -11.476754  -11.495040 1.828548e-02  14.719 2.30485e-04 7.24143e-03
        658    22  -11.476758  -11.494223 1.746460e-02  14.719 2.20632e-04 7.23468e-03
        659    22  -11.476763  -11.493291 1.652883e-02  14.719 2.09747e-04 7.23310e-03
        660    22  -11.476768  -11.492280 1.551169e-02  14.719 1.98414e-04 7.23199e-03
        661    25  -11.476775  -11.491229 1.445450e-02  14.719 1.86904e-04 7.22807e-03
        662    25  -11.476783  -11.490214 1.343115e-02  14.719 1.75385e-04 7.22096e-03
        663    25  -11.476792  -11.489368 1.257597e-02  14.719 1.64863e-04 7.20227e-03
        664    25  -11.476804  -11.488534 1.172980e-02  14.719 1.55402e-04 7.17538e-03
        665    26  -11.476818  -11.487801 1.098326e-02  14.719 1.47466e-04 7.13797e-03
        666    25  -11.476833  -11.487199 1.036545e-02  14.719 1.41444e-04 7.08993e-03
        667    26  -11.476850  -11.486753 9.902171e-03  14.719 1.37554e-04 7.03164e-03
        668    25  -11.476868  -11.486482 9.613190e-03  14.719 1.35784e-04 6.96395e-03
        669    27  -11.476887  -11.486397 9.509785e-03  14.719 1.35888e-04 6.88807e-03
        670    25  -11.476906  -11.486500 9.594399e-03  14.719 1.37450e-04 6.80562e-03
        671    26  -11.476924  -11.486786 9.861658e-03  14.719 1.39948e-04 6.71860e-03
        672    25  -11.476942  -11.487241 1.029949e-02  14.719 1.42855e-04 6.62905e-03
        673    25  -11.476958  -11.487869 1.091064e-02  14.719 1.45762e-04 6.53919e-03
        674    25  -11.476973  -11.488663 1.168956e-02  14.719 1.48149e-04 6.45116e-03
        675    26  -11.476986  -11.489565 1.257823e-02  14.719 1.49616e-04 6.36795e-03
        676    26  -11.476998  -11.490533 1.353563e-02  14.719 1.49945e-04 6.29165e-03
        677    27  -11.477007  -11.491531 1.452350e-02  14.719 1.49068e-04 6.22352e-03
        678    26  -11.477014  -11.492523 1.550883e-02  14.719 1.47021e-04 6.16407e-03
        679    25  -11.477019  -11.493484 1.646452e-02  14.719 1.43891e-04 6.11316e-03
        680    27  -11.477023  -11.494392 1.736947e-02  14.719 1.39790e-04 6.07017e-03
        681    25  -11.477024  -11.495232 1.820755e-02  14.719 1.34836e-04 6.03417e-03
        682    25  -11.477024  -11.495991 1.896659e-02  14.719 1.29161e-04 6.00405e-03
        683    25  -11.477022  -11.496660 1.963796e-02  14.719 1.22926e-04 5.97851e-03
        684    25  -11.477020  -11.497235 2.021547e-02  14.719 1.16334e-04 5.95615e-03
        685    25  -11.477016  -11.497711 2.069508e-02  14.719 1.09639e-04 5.93555e-03
        686    27  -11.477012  -11.498087 2.107454e-02  14.719 1.03143e-04 5.91532e-03
        687    25  -11.477007  -11.498359 2.135196e-02  14.719 9.71752e-05 5.89426e-03
        688    25  -11.477002  -11.498530 2.152837e-02  14.719 9.20575e-05 5.87140e-03
        689    26  -11.476996  -11.498601 2.160487e-02  14.719 8.80594e-05 5.84607e-03
        690    25  -11.476990  -11.498574 2.158369e-02  14.719 8.53445e-05 5.81791e-03
        691    25  -11.476984  -11.498452 2.146814e-02  14.719 8.39332e-05 5.78685e-03
        692    27  -11.476979  -11.498241 2.126267e-02  14.719 8.36959e-05 5.75308e-03
        693    25  -11.476973  -11.497945 2.097227e-02  14.719 8.43802e-05 5.71701e-03
        694    26  -11.476968  -11.497572 2.060407e-02  14.719 8.56741e-05 5.67917e-03
        695    26  -11.476963  -11.497128 2.016490e-02  14.719 8.72555e-05 5.64022e-03
        696    25  -11.476959  -11.496622 1.966376e-02  14.719 8.88366e-05 5.60081e-03
        697    25  -11.476955  -11.496065 1.911008e-02  14.719 9.01924e-05 5.56158e-03
        698    25  -11.476952  -11.495466 1.851430e-02  14.719 9.10913e-05 5.52308e-03
        699    25  -11.476950  -11.494857 1.790725e-02  14.719 9.15835e-05 5.48561e-03
        700    25  -11.476948  -11.494215 1.726667e-02  14.719 9.15601e-05 5.44950e-03
        701    25  -11.476948  -11.493556 1.660872e-02  14.719 9.10237e-05 5.41485e-03
        702    25  -11.476948  -11.492890 1.594240e-02  14.719 9.00148e-05 5.38167e-03
        703    25  -11.476946  -11.492228 1.528137e-02  14.719 8.88707e-05 5.34651e-03
        704    25  -11.476941  -11.491681 1.473986e-02  14.719 9.33219e-05 5.30882e-03
        705    27  -11.476939  -11.491327 1.438776e-02  14.719 9.78047e-05 5.27032e-03
        706    26  -11.476939  -11.490970 1.403055e-02  14.719 9.83947e-05 5.23748e-03
[...]
       3676    14  -13.603921  -13.603911 9.885456e-06   7.373 9.35803e-06 1.30478e-05
       3677    14  -13.603921  -13.603911 9.938485e-06   7.373 9.33691e-06 1.30164e-05
       3678    14  -13.603921  -13.603911 1.000505e-05   7.373 9.31550e-06 1.29849e-05
       3679    14  -13.603921  -13.603911 1.011117e-05   7.373 9.29429e-06 1.29528e-05
       3680    14  -13.603921  -13.603911 1.022566e-05   7.373 9.27261e-06 1.29206e-05
       3681    14  -13.603921  -13.603911 1.037331e-05   7.373 9.25096e-06 1.28880e-05
       3682    14  -13.603921  -13.603911 1.052289e-05   7.373 9.22868e-06 1.28553e-05
       3683    14  -13.603921  -13.603910 1.069814e-05   7.373 9.20631e-06 1.28222e-05
       3684    14  -13.603921  -13.603910 1.086801e-05   7.373 9.18320e-06 1.27891e-05
       3685    14  -13.603921  -13.603910 1.105571e-05   7.373 9.15997e-06 1.27557e-05
       3686    14  -13.603921  -13.603910 1.123083e-05   7.373 9.13583e-06 1.27225e-05
       3687    14  -13.603921  -13.603910 1.141574e-05   7.373 9.11153e-06 1.26891e-05
       3688    14  -13.603921  -13.603909 1.157990e-05   7.373 9.08644e-06 1.26560e-05
       3689    14  -13.603921  -13.603909 1.174706e-05   7.373 9.06116e-06 1.26227e-05
       3690    14  -13.603921  -13.603909 1.188680e-05   7.373 9.03515e-06 1.25897e-05
       3691    14  -13.603921  -13.603909 1.202276e-05   7.373 9.00902e-06 1.25565e-05
       3692    14  -13.603921  -13.603909 1.212592e-05   7.373 8.98229e-06 1.25236e-05
       3693    14  -13.603921  -13.603909 1.221989e-05   7.373 8.95551e-06 1.24905e-05
       3694    14  -13.603921  -13.603909 1.227656e-05   7.373 8.92829e-06 1.24577e-05
       3695    14  -13.603921  -13.603909 1.232031e-05   7.373 8.90119e-06 1.24248e-05
       3696    14  -13.603921  -13.603909 1.232425e-05   7.373 8.87379e-06 1.23921e-05
       3697    14  -13.603921  -13.603909 1.231314e-05   7.373 8.84669e-06 1.23592e-05
       3698    14  -13.603921  -13.603909 1.226137e-05   7.373 8.81943e-06 1.23265e-05
       3699    14  -13.603921  -13.603909 1.219450e-05   7.373 8.79263e-06 1.22937e-05
       3700    14  -13.603921  -13.603909 1.208786e-05   7.373 8.76587e-06 1.22612e-05
       3701    14  -13.603921  -13.603909 1.196815e-05   7.373 8.73971e-06 1.22286e-05
       3702    14  -13.603921  -13.603909 1.181161e-05   7.373 8.71375e-06 1.21962e-05
       3703    14  -13.603921  -13.603909 1.164582e-05   7.373 8.68852e-06 1.21638e-05
       3704    14  -13.603921  -13.603910 1.144785e-05   7.373 8.66361e-06 1.21318e-05
       3705    14  -13.603921  -13.603910 1.124613e-05   7.373 8.63954e-06 1.20997e-05
       3706    14  -13.603921  -13.603910 1.101834e-05   7.373 8.61589e-06 1.20680e-05
       3707    14  -13.603921  -13.603910 1.079351e-05   7.373 8.59312e-06 1.20362e-05
       3708    14  -13.603921  -13.603910 1.054957e-05   7.373 8.57082e-06 1.20049e-05
       3709    14  -13.603921  -13.603911 1.031597e-05   7.373 8.54945e-06 1.19736e-05
       3710    14  -13.603921  -13.603911 1.007083e-05   7.373 8.52853e-06 1.19426e-05
       3711    14  -13.603921  -13.603911 9.843553e-06   7.373 8.50856e-06 1.19116e-05
       3712    14  -13.603921  -13.603911 9.612094e-06   7.373 8.48893e-06 1.18808e-05
       3713    14  -13.603921  -13.603912 9.405458e-06   7.373 8.47019e-06 1.18500e-05
       3714    14  -13.603921  -13.603912 9.200914e-06   7.373 8.45179e-06 1.18193e-05
       3715    14  -13.603921  -13.603912 9.027521e-06   7.373 8.43411e-06 1.17885e-05
       3716    14  -13.603921  -13.603912 8.861182e-06   7.373 8.41667e-06 1.17578e-05
       3717    14  -13.603921  -13.603912 8.730506e-06   7.373 8.39984e-06 1.17268e-05
       3718    14  -13.603921  -13.603912 8.610671e-06   7.373 8.38309e-06 1.16958e-05
       3719    14  -13.603921  -13.603912 8.529132e-06   7.373 8.36682e-06 1.16646e-05
       3720    14  -13.603921  -13.603912 8.460234e-06   7.373 8.35046e-06 1.16334e-05
       3721    14  -13.603921  -13.603912 8.430359e-06   7.373 8.33443e-06 1.16018e-05
       3722    14  -13.603921  -13.603912 8.412976e-06   7.373 8.31816e-06 1.15702e-05
       3723    14  -13.603921  -13.603912 8.433552e-06   7.373 8.30210e-06 1.15383e-05
       3724    14  -13.603921  -13.603912 8.464848e-06   7.373 8.28557e-06 1.15065e-05
       3725    14  -13.603921  -13.603912 8.531253e-06   7.373 8.26911e-06 1.14744e-05
       3726    14  -13.603921  -13.603912 8.604408e-06   7.373 8.25212e-06 1.14424e-05
       3727    14  -13.603921  -13.603912 8.708729e-06   7.373 8.23505e-06 1.14102e-05
       3728    14  -13.603921  -13.603912 8.815213e-06   7.373 8.21735e-06 1.13782e-05
       3729    14  -13.603921  -13.603912 8.947487e-06   7.373 8.19947e-06 1.13461e-05
       3730    14  -13.603921  -13.603912 9.076892e-06   7.373 8.18093e-06 1.13142e-05
       3731    14  -13.603921  -13.603911 9.226371e-06   7.373 8.16210e-06 1.12822e-05
       3732    14  -13.603921  -13.603911 9.366878e-06   7.373 8.14258e-06 1.12506e-05
       3733    14  -13.603921  -13.603911 9.521708e-06   7.373 8.12281e-06 1.12189e-05
       3734    14  -13.603921  -13.603911 9.662604e-06   7.373 8.10230e-06 1.11876e-05
       3735    14  -13.603921  -13.603911 9.811973e-06   7.373 8.08156e-06 1.11563e-05
       3736    14  -13.603921  -13.603911 9.942498e-06   7.373 8.06014e-06 1.11254e-05
       3737    14  -13.603921  -13.603911 1.007662e-05   7.373 8.03853e-06 1.10945e-05
       3738    14  -13.603921  -13.603910 1.018791e-05   7.373 8.01630e-06 1.10640e-05
       3739    14  -13.603921  -13.603910 1.029880e-05   7.373 7.99395e-06 1.10336e-05
       3740    14  -13.603921  -13.603910 1.038389e-05   7.373 7.97108e-06 1.10035e-05
       3741    14  -13.603921  -13.603910 1.046573e-05   7.373 7.94818e-06 1.09734e-05
       3742    14  -13.603921  -13.603910 1.051999e-05   7.373 7.92485e-06 1.09437e-05
       3743    14  -13.603921  -13.603910 1.056935e-05   7.373 7.90160e-06 1.09140e-05
       3744    14  -13.603921  -13.603910 1.059052e-05   7.373 7.87805e-06 1.08847e-05
       3745    14  -13.603921  -13.603910 1.060643e-05   7.373 7.85469e-06 1.08554e-05
       3746    14  -13.603921  -13.603910 1.059479e-05   7.373 7.83111e-06 1.08265e-05
       3747    14  -13.603921  -13.603910 1.057847e-05   7.373 7.80782e-06 1.07976e-05
       3748    14  -13.603921  -13.603910 1.053619e-05   7.373 7.78444e-06 1.07690e-05
       3749    14  -13.603921  -13.603910 1.049105e-05   7.373 7.76143e-06 1.07405e-05
       3750    14  -13.603921  -13.603910 1.042239e-05   7.373 7.73843e-06 1.07124e-05
       3751    14  -13.603921  -13.603910 1.035340e-05   7.373 7.71586e-06 1.06842e-05
       3752    14  -13.603921  -13.603910 1.026389e-05   7.373 7.69337e-06 1.06565e-05
       3753    14  -13.603921  -13.603910 1.017708e-05   7.373 7.67137e-06 1.06287e-05
       3754    14  -13.603921  -13.603911 1.007346e-05   7.373 7.64949e-06 1.06013e-05
       3755    14  -13.603921  -13.603911 9.975712e-06   7.373 7.62814e-06 1.05739e-05
       3756    14  -13.603921  -13.603911 9.864856e-06   7.373 7.60694e-06 1.05469e-05
       3757    14  -13.603921  -13.603911 9.763213e-06   7.373 7.58627e-06 1.05198e-05
       3758    14  -13.603921  -13.603911 9.651902e-06   7.373 7.56575e-06 1.04930e-05
       3759    14  -13.603921  -13.603911 9.552904e-06   7.373 7.54575e-06 1.04662e-05
       3760    14  -13.603921  -13.603911 9.447435e-06   7.373 7.52588e-06 1.04398e-05
       3761    14  -13.603921  -13.603911 9.356935e-06   7.373 7.50651e-06 1.04132e-05
       3762    14  -13.603921  -13.603911 9.262504e-06   7.373 7.48723e-06 1.03869e-05
       3763    14  -13.603921  -13.603911 9.185106e-06   7.373 7.46841e-06 1.03605e-05
       3764    14  -13.603921  -13.603911 9.105763e-06   7.373 7.44969e-06 1.03344e-05
       3765    14  -13.603921  -13.603911 9.045057e-06   7.373 7.43126e-06 1.03081e-05
       3766    14  -13.603921  -13.603912 8.982460e-06   7.373 7.41289e-06 1.02821e-05
       3767    14  -13.603921  -13.603912 8.939196e-06   7.373 7.39490e-06 1.02560e-05
       3768    14  -13.603920  -13.603912 8.895341e-06   7.373 7.37676e-06 1.02301e-05
       3769    14  -13.603920  -13.603912 8.869980e-06   7.373 7.35896e-06 1.02041e-05
       3770    14  -13.603920  -13.603912 8.843046e-06   7.373 7.34104e-06 1.01784e-05
       3771    14  -13.603920  -13.603912 8.834201e-06   7.373 7.32335e-06 1.01525e-05
       3772    14  -13.603920  -13.603912 8.822311e-06   7.373 7.30551e-06 1.01269e-05
       3773    14  -13.603920  -13.603912 8.827017e-06   7.373 7.28787e-06 1.01012e-05
       3774    14  -13.603920  -13.603912 8.827288e-06   7.373 7.27004e-06 1.00757e-05
       3775    14  -13.603920  -13.603912 8.842167e-06   7.373 7.25238e-06 1.00501e-05
       3776    14  -13.603920  -13.603912 8.850645e-06   7.373 7.23450e-06 1.00247e-05
       3777    14  -13.603920  -13.603912 8.871681e-06   7.373 7.21676e-06 9.99926e-06

        ==> Orbital Optimization <==


        iter       Energy        dE       |g|     r
           0  -132.666846 -6.99e-09  7.95e-05 1.000

            Orbital Optimization converged in   1 iterations 
            Total energy change: -6.987079e-09
            Final gradient norm: 7.953199e-05

            Total energy:    -109.094406531122


      v2RDM iterations converged!

      na:                                    3.000000
      nb:                                    3.000000
      v2RDM total spin [S(S+1)]:            -0.000001

    Molecular point group: d2h
    Full point group: D_inf_h

    Geometry (in Angstrom), charge = 0, multiplicity = 1:

       Center              X                  Y                   Z               Mass       
    ------------   -----------------  -----------------  -----------------  -----------------
         N            0.000000000000     0.000000000000    -0.550000000000    14.003074004430
         N            0.000000000000     0.000000000000     0.550000000000    14.003074004430

  -AO BASIS SET INFORMATION:
    Name                   = CC-PVDZ
    Blend                  = CC-PVDZ
    Total number of shells = 12
    Number of primitives   = 44
    Number of AO           = 30
    Number of SO           = 28
    Maximum AM             = 2
    Spherical Harmonics    = TRUE

  -Contraction Scheme:
    Atom   Type   All Primitives // Shells:
   ------ ------ --------------------------
       1     N     17s 4p 1d // 3s 2p 1d 
       2     N     17s 4p 1d // 3s 2p 1d 

  ==> AO Basis Functions <==

    [ CC-PVDZ ]
    spherical
    ****
    N   1
    S   8 1.00
                      9046.00000000           0.00070000
                      1357.00000000           0.00538900
                       309.30000000           0.02740600
                        87.73000000           0.10320700
                        28.56000000           0.27872300
                        10.21000000           0.44854000
                         3.83800000           0.27823800
                         0.74660000           0.01544000
    S   8 1.00
                      9046.00000000          -0.00015300
                      1357.00000000          -0.00120800
                       309.30000000          -0.00599200
                        87.73000000          -0.02454400
                        28.56000000          -0.06745900
                        10.21000000          -0.15807800
                         3.83800000          -0.12183100
                         0.74660000           0.54900300
    S   1 1.00
                         0.22480000           1.00000000
    P   3 1.00
                        13.55000000           0.03991900
                         2.91700000           0.21716900
                         0.79730000           0.51031900
    P   1 1.00
                         0.21850000           1.00000000
    D   1 1.00
                         0.81700000           1.00000000
    ****

      Nuclear Repulsion Energy:               23.572439384391
      Two-Electron Energy:                    61.696190716799
      Kinetic Energy:                        109.122763984567
      Electron-Nuclear Potential Energy:    -303.485800616879

    * v2RDM total energy:                   -109.094406531122


 # Natural Orbital Occupation Numbers (alpha) #
 Irrep: 1
      1:    1.000000000000000
      2:    1.000000000000000
      3:    0.990601706738632
      4:    0.000000000000000
      5:    0.000000000000000
      6:    0.000000000000000
      7:    0.000000000000000

 Irrep: 2
      1:    0.000000000000000

 Irrep: 3
      1:    0.032660093773365
      2:    0.000000000000000
      3:    0.000000000000000

 Irrep: 4
      1:    0.032660098293437
      2:    0.000000000000000
      3:    0.000000000000000

 Irrep: 5
      1:    0.000000000000000

 Irrep: 6
      1:    1.000000000000000
      2:    1.000000000000000
      3:    0.009402425892923
      4:    0.000000000000000
      5:    0.000000000000000
      6:    0.000000000000000
      7:    0.000000000000000

 Irrep: 7
      1:    0.967337834382750
      2:    0.000000000000000
      3:    0.000000000000000

 Irrep: 8
      1:    0.967337839254246
      2:    0.000000000000000
      3:    0.000000000000000


 # Natural Orbital Occupation Numbers (beta) #
 Irrep: 1
      1:    1.000000000000000
      2:    1.000000000000000
      3:    0.990601706157063
      4:    0.000000000000000
      5:    0.000000000000000
      6:    0.000000000000000
      7:    0.000000000000000

 Irrep: 2
      1:    0.000000000000000

 Irrep: 3
      1:    0.032660092941913
      2:    0.000000000000000
      3:    0.000000000000000

 Irrep: 4
      1:    0.032660097462629
      2:    0.000000000000000
      3:    0.000000000000000

 Irrep: 5
      1:    0.000000000000000

 Irrep: 6
      1:    1.000000000000000
      2:    1.000000000000000
      3:    0.009402428075184
      4:    0.000000000000000
      5:    0.000000000000000
      6:    0.000000000000000
      7:    0.000000000000000

 Irrep: 7
      1:    0.967337835270672
      2:    0.000000000000000
      3:    0.000000000000000

 Irrep: 8
      1:    0.967337840140809
      2:    0.000000000000000
      3:    0.000000000000000


  ==> Iteration count <==

      Microiterations:                   75923
      Macroiterations:                    3778
      Orbital optimization steps:            8

  ==> Wall time <==

      Orbital optimization:               0.11 s
      Total:                              6.08 s

    v2RDM total energy....................................................................PASSED

Scratch directory: /tmp/
   => Loading Basis Set <=

    Name: CC-PVDZ
    Role: ORBITAL
    Keyword: BASIS
    atoms 1-2 entry N          line   168 file /Users/deprince/software/psi4/v1.9.1/psi4/install/share/psi4/basis/cc-pvdz.gbs 


         ---------------------------------------------------------
                                   SCF
               by Justin Turney, Rob Parrish, Andy Simmonett
                          and Daniel G. A. Smith
                              UKS Reference
                        1 Threads,    953 MiB Core
         ---------------------------------------------------------

  ==> Geometry <==

    Molecular point group: d2h
    Full point group: D_inf_h

    Geometry (in Angstrom), charge = 0, multiplicity = 1:

       Center              X                  Y                   Z               Mass       
    ------------   -----------------  -----------------  -----------------  -----------------
         N            0.000000000000     0.000000000000    -0.550000000000    14.003074004430
         N            0.000000000000     0.000000000000     0.550000000000    14.003074004430

  Running in d2h symmetry.

  Rotational constants: A = ************  B =      1.98984  C =      1.98984 [cm^-1]
  Rotational constants: A = ************  B =  59653.84489  C =  59653.84489 [MHz]
  Nuclear repulsion =   23.572439384390908

  Charge       = 0
  Multiplicity = 1
  Electrons    = 14
  Nalpha       = 7
  Nbeta        = 7

  ==> Algorithm <==

  SCF Algorithm Type is DF.
  DIIS enabled.
  MOM disabled.
  Fractional occupation disabled.
  Guess Type is AUTO.
  Energy threshold   = 1.00e-08
  Density threshold  = 1.00e-10
  Integral threshold = 1.00e-12

  ==> Primary Basis <==

  Basis Set: CC-PVDZ
    Blend: CC-PVDZ
    Number of shells: 12
    Number of basis functions: 28
    Number of Cartesian functions: 30
    Spherical Harmonics?: true
    Max angular momentum: 2

  ==> DFT Potential <==

   => LibXC <=

    Version 6.2.2
    S. Lehtola, C. Steigemann, M. J.T. Oliveira, and M. A.L. Marques.,  SoftwareX 7, 15 (2018) (10.1016/j.softx.2017.11.002)

   => Composite Functional: M06-2X <= 

    Hybrid M06-2X Meta-GGA XC Functional  (10.1007/s00214-007-0310-x)
    Y. Zhao and D. G. Truhlar,  Theor. Chem. Acc., 120, 215, 2008


    Deriv               =              1
    GGA                 =           TRUE
    Meta                =           TRUE

    Exchange Hybrid     =           TRUE
    MP2 Hybrid          =          FALSE

   => Exchange Functionals <=

    1.0000   XC_HYB_MGGA_X_M06_2X

   => Exact (HF) Exchange <=

    0.5400               HF 

   => Correlation Functionals <=

    1.0000   XC_MGGA_C_M06_2X

   => LibXC Density Thresholds  <==

    XC_MGGA_C_M06_2X:  1.00E-12 
    XC_HYB_MGGA_X_M06_2X:  1.00E-15 

   => Molecular Quadrature <=

    Radial Scheme          =       TREUTLER
    Pruning Scheme         =           NONE
    Nuclear Scheme         =       TREUTLER

    Blocking Scheme        =         OCTREE
    BS radius alpha        =              1
    Pruning alpha          =              1
    Radial Points          =             75
    Spherical Points       =            302
    Total Points           =          41824
    Total Blocks           =            372
    Max Points             =            255
    Max Functions          =             28
    Weights Tolerance      =       1.00E-15

   => Loading Basis Set <=

    Name: (CC-PVDZ AUX)
    Role: JKFIT
    Keyword: DF_BASIS_SCF
    atoms 1-2 entry N          line   171 file /Users/deprince/software/psi4/v1.9.1/psi4/install/share/psi4/basis/cc-pvdz-jkfit.gbs 



        ********************************************************************
        *                                                                  *
        *    MC-PDFT:                                                       *
        *                                                                  *
        *    Multiconfigurational Pair Density Functional Theory           *
        *                                                                  *
        ********************************************************************


    ==> Build Phi and Phi' matrices ... Done. <==


    ==> Build Rho ...

      Integrated total density =      13.999999532805
      Integrated alpha density =       6.999999765546
      Integrated beta density  =       6.999999767259

    ... Done. <==


  Warning: JK type 'DF' found in simple constructor, defaulting to DiskDFJK.
           Please use the build_JK(primary, auxiliary, options, do_wK, memory)
           constructor as DiskDFJK has non-optimal performance for many workloads.


    ==> Build Pi ... Done. <==

    ==> MC-PDFT energy by component <==

        nuclear repulsion energy =               23.572439384391
        electron-nucleus potential energy =    -303.485800616879
        electron kinetic energy =               109.122763984567
        classical coulomb energy  =              75.060531006496
        exchange energy =                       -13.280224390854
        correlation energy =                     -0.473266529307

    * MC-PDFT total energy   =           -109.483557161585

    MC-PDFT total energy..................................................................PASSED

    Psi4 stopped on: Saturday, 06 July 2024 08:46AM
    Psi4 wall time for execution: 0:00:08.26

*** Psi4 exiting successfully. Buy a developer a beer!
