
    -----------------------------------------------------------------------
          Psi4: An Open-Source Ab Initio Electronic Structure Package
                               Psi4 1.4a2.dev397 

                         Git: Rev {master} b3df9b2 dirty


    R. M. Parrish, L. A. Burns, D. G. A. Smith, A. C. Simmonett,
    A. E. DePrince III, E. G. Hohenstein, U. Bozkaya, A. Yu. Sokolov,
    R. Di Remigio, R. M. Richard, J. F. Gonthier, A. M. James,
    H. R. McAlexander, A. Kumar, M. Saitow, X. Wang, B. P. Pritchard,
    P. Verma, H. F. Schaefer III, K. Patkowski, R. A. King, E. F. Valeev,
    F. A. Evangelista, J. M. Turney, T. D. Crawford, and C. D. Sherrill,
    J. Chem. Theory Comput. 13(7) pp 3185--3197 (2017).
    (doi: 10.1021/acs.jctc.7b00174)


                         Additional Contributions by
    P. Kraus, H. Kruse, M. H. Lechner, M. C. Schieber, R. A. Shaw,
    A. Alenaizan, R. Galvelis, Z. L. Glick, S. Lehtola, and J. P. Misiewicz

    -----------------------------------------------------------------------


    Psi4 started on: Friday, 10 July 2020 08:58AM

    Process ID: 67599
    Host:       illegally-used-at.fsu
    PSIDATADIR: /Users/deprince/edeprince3/psi4/install/master/share/psi4
    Memory:     500.0 MiB
    Threads:    1
    
  ==> Input File <==

--------------------------------------------------------------------------

# job description:
print('        H2O / 6-31g / DOCI, scf_type = DF, rOH = 1.0 A, aHOH = 104.5')

sys.path.insert(0, '../../..')
import hilbert

molecule h2o {
0 1
O
H 1 1.0
H 1 1.0 2 104.5
symmetry c1
}

set {
  reference rhf
  basis 6-31g
  scf_type df

  e_convergence 1e-10
  r_convergence 1e-8
  orbopt_gradient_convergence 1e-6
  orbopt_energy_convergence 1e-8

  localize_orbitals true
  noisy_orbitals    true
  optimize_orbitals true
  orbopt_maxiter 1
  maxiter 10000

}

en = energy('doci')

ref_scf  = -75.98014193580194 # TEST
ref_doci = -76.052851232676   # TEST

compare_values(ref_scf, variable("SCF TOTAL ENERGY"), 8, "SCF total energy") # TEST
compare_values(ref_doci, variable("CURRENT ENERGY"), 5, "DOCI total energy") # TEST
--------------------------------------------------------------------------

Scratch directory: /tmp/

*** tstart() called on illegally-used-at.fsu
*** at Fri Jul 10 08:58:42 2020

   => Loading Basis Set <=

    Name: 6-31G
    Role: ORBITAL
    Keyword: BASIS
    atoms 1   entry O          line   117 file /Users/deprince/edeprince3/psi4/install/master/share/psi4/basis/6-31g.gbs 
    atoms 2-3 entry H          line    26 file /Users/deprince/edeprince3/psi4/install/master/share/psi4/basis/6-31g.gbs 


         ---------------------------------------------------------
                                   SCF
               by Justin Turney, Rob Parrish, Andy Simmonett
                          and Daniel G. A. Smith
                              RHF Reference
                        1 Threads,    500 MiB Core
         ---------------------------------------------------------

  ==> Geometry <==

    Molecular point group: c1
    Full point group: C2v

    Geometry (in Angstrom), charge = 0, multiplicity = 1:

       Center              X                  Y                   Z               Mass       
    ------------   -----------------  -----------------  -----------------  -----------------
         O            0.000000000000     0.000000000000    -0.068516219320    15.994914619570
         H            0.000000000000    -0.790689573744     0.543701060715     1.007825032230
         H            0.000000000000     0.790689573744     0.543701060715     1.007825032230

  Running in c1 symmetry.

  Rotational constants: A =     25.12555  B =     13.37733  C =      8.72955 [cm^-1]
  Rotational constants: A = 753245.07149  B = 401042.16706  C = 261705.25473 [MHz]
  Nuclear repulsion =    8.801465564567374

  Charge       = 0
  Multiplicity = 1
  Electrons    = 10
  Nalpha       = 5
  Nbeta        = 5

  ==> Algorithm <==

  SCF Algorithm Type is DF.
  DIIS enabled.
  MOM disabled.
  Fractional occupation disabled.
  Guess Type is SAD.
  Energy threshold   = 1.00e-10
  Density threshold  = 1.00e-08
  Integral threshold = 0.00e+00

  ==> Primary Basis <==

  Basis Set: 6-31G
    Blend: 6-31G
    Number of shells: 9
    Number of basis function: 13
    Number of Cartesian functions: 13
    Spherical Harmonics?: false
    Max angular momentum: 1

   => Loading Basis Set <=

    Name: (6-31G AUX)
    Role: JKFIT
    Keyword: DF_BASIS_SCF
    atoms 1   entry O          line   221 file /Users/deprince/edeprince3/psi4/install/master/share/psi4/basis/cc-pvdz-jkfit.gbs 
    atoms 2-3 entry H          line    51 file /Users/deprince/edeprince3/psi4/install/master/share/psi4/basis/cc-pvdz-jkfit.gbs 

  ==> Pre-Iterations <==

   -------------------------------------------------------
    Irrep   Nso     Nmo     Nalpha   Nbeta   Ndocc  Nsocc
   -------------------------------------------------------
     A         13      13       0       0       0       0
   -------------------------------------------------------
    Total      13      13       5       5       5       0
   -------------------------------------------------------

  ==> Integral Setup <==

  ==> DiskDFJK: Density-Fitted J/K Matrices <==

    J tasked:                  Yes
    K tasked:                  Yes
    wK tasked:                  No
    OpenMP threads:              1
    Integrals threads:           1
    Memory [MiB]:              375
    Algorithm:                Core
    Integral Cache:           SAVE
    Schwarz Cutoff:          1E-12
    Fitting Condition:       1E-10

   => Auxiliary Basis Set <=

  Basis Set: (6-31G AUX)
    Blend: CC-PVDZ-JKFIT
    Number of shells: 42
    Number of basis function: 131
    Number of Cartesian functions: 131
    Spherical Harmonics?: false
    Max angular momentum: 3

  Minimum eigenvalue in the overlap matrix is 7.3923788795E-02.
  Reciprocal condition number of the overlap matrix is 2.1980826342E-02.
    Using symmetric orthogonalization.
  SCF Guess: Superposition of Atomic Densities via on-the-fly atomic UHF.

  ==> Iterations <==

                           Total Energy        Delta E     RMS |[F,P]|

   @DF-RHF iter SAD:   -75.45941871343828   -7.54594e+01   0.00000e+00 
   @DF-RHF iter   1:   -75.90434666105367   -4.44928e-01   3.09953e-02 DIIS
   @DF-RHF iter   2:   -75.95857164768282   -5.42250e-02   1.90214e-02 DIIS
   @DF-RHF iter   3:   -75.97973621451969   -2.11646e-02   1.56674e-03 DIIS
   @DF-RHF iter   4:   -75.98012651826689   -3.90304e-04   3.11867e-04 DIIS
   @DF-RHF iter   5:   -75.98014154101817   -1.50228e-05   4.14320e-05 DIIS
   @DF-RHF iter   6:   -75.98014191790431   -3.76886e-07   8.27072e-06 DIIS
   @DF-RHF iter   7:   -75.98014193491713   -1.70128e-08   1.79874e-06 DIIS
   @DF-RHF iter   8:   -75.98014193578133   -8.64205e-10   3.33255e-07 DIIS
   @DF-RHF iter   9:   -75.98014193580164   -2.03073e-11   3.10076e-08 DIIS
   @DF-RHF iter  10:   -75.98014193580194   -2.98428e-13   2.58167e-09 DIIS
  Energy and wave function converged.


  ==> Post-Iterations <==

    Orbital Energies [Eh]
    ---------------------

    Doubly Occupied:                                                      

       1A    -20.568888     2A     -1.334712     3A     -0.686875  
       4A     -0.554298     5A     -0.499284  

    Virtual:                                                              

       6A      0.193417     7A      0.287599     8A      1.041506  
       9A      1.130380    10A      1.164432    11A      1.220999  
      12A      1.368964    13A      1.693510  

    Final Occupation by Irrep:
              A 
    DOCC [     5 ]

  @DF-RHF Final Energy:   -75.98014193580194

   => Energetics <=

    Nuclear Repulsion Energy =              8.8014655645673745
    One-Electron Energy =                -122.2751012239349109
    Two-Electron Energy =                  37.4934937235655994
    Total Energy =                        -75.9801419358019245

Computation Completed


Properties will be evaluated at   0.000000,   0.000000,   0.000000 [a0]

Properties computed using the SCF density matrix

  Nuclear Dipole Moment: [e a0]
     X:     0.0000      Y:     0.0000      Z:     1.0191

  Electronic Dipole Moment: [e a0]
     X:    -0.0000      Y:     0.0000      Z:     0.0213

  Dipole Moment: [e a0]
     X:    -0.0000      Y:     0.0000      Z:     1.0404     Total:     1.0404

  Dipole Moment: [D]
     X:    -0.0000      Y:     0.0000      Z:     2.6444     Total:     2.6444


*** tstop() called on illegally-used-at.fsu at Fri Jul 10 08:58:42 2020
Module time:
	user time   =       0.31 seconds =       0.01 minutes
	system time =       0.01 seconds =       0.00 minutes
	total time  =          0 seconds =       0.00 minutes
Total time:
	user time   =       0.31 seconds =       0.01 minutes
	system time =       0.01 seconds =       0.00 minutes
	total time  =          0 seconds =       0.00 minutes
 MINTS: Wrapper to libmints.
   by Justin Turney

   Calculation information:
      Number of threads:                 1
      Number of atoms:                   3
      Number of AO shells:               9
      Number of SO shells:               9
      Number of primitives:             22
      Number of atomic orbitals:        13
      Number of basis functions:        13

      Number of irreps:                  1
      Integral cutoff                 0.00e+00
      Number of functions per irrep: [  13 ]

 OEINTS: Overlap, kinetic, potential, dipole, and quadrupole integrals
         stored in file 35.

      Computing two-electron integrals...done
      Computed 2263 non-zero two-electron integrals.
        Stored in file 33.


Reading options from the HILBERT block
Calling plugin hilbert.so.


  ==> Pipek-Mezey Localizer <==

    Convergence =   1.000E-08
    Maxiter     =          50

    Iteration                   Metric       Residual
    @PM    0   4.0403577598919860E+00              -
    @PM    1   4.2293811168321778E+00   4.678382E-02
    @PM    2   4.2298843280346654E+00   1.189799E-04
    @PM    3   4.2298866055815463E+00   5.384419E-07
    @PM    4   4.2298866262938315E+00   4.896653E-09

    PM Localizer converged.



        ***************************************************
        *                                                 *
        *    DOCI                                         *
        *                                                 *
        *    doubly occupied configuration interaction    *
        *                                                 *
        ***************************************************

    ==> Convergence parameters <==

        r_convergence:                  1.000e-08
        e_convergence:                  1.000e-10
        maximum iterations:                 10000

    ==> Orbital optimization parameters <==

        localize orbitals?                    yes
        optimize orbitals?                    yes
        g_convergence:                  1.000e-06
        e_convergence:                  1.000e-08
        maximum iterations:                     1
        exact diagonal Hessian:              true
        number of DIIS vectors:                 0
        print iteration info:               false

    ==> Transform three-electron integrals <==

        Time for integral transformation:     0.01 s

    Molecular point group: c1
    Full point group: C2v

    Geometry (in Angstrom), charge = 0, multiplicity = 1:

       Center              X                  Y                   Z               Mass       
    ------------   -----------------  -----------------  -----------------  -----------------
         O            0.000000000000     0.000000000000    -0.068516219320    15.994914619570
         H            0.000000000000    -0.790689573744     0.543701060715     1.007825032230
         H            0.000000000000     0.790689573744     0.543701060715     1.007825032230

  -AO BASIS SET INFORMATION:
    Name                   = 6-31G
    Blend                  = 6-31G
    Total number of shells = 9
    Number of primitives   = 22
    Number of AO           = 13
    Number of SO           = 13
    Maximum AM             = 1
    Spherical Harmonics    = FALSE

  -Contraction Scheme:
    Atom   Type   All Primitives // Shells:
   ------ ------ --------------------------
       1     O     10s 4p // 3s 2p 
       2     H     4s // 2s 
       3     H     4s // 2s 

  ==> AO Basis Functions <==

    [ 6-31G ]
    cartesian
    ****
    O   1
    S   6 1.00
                      5484.67170000           0.00183110
                       825.23495000           0.01395010
                       188.04696000           0.06844510
                        52.96450000           0.23271430
                        16.89757000           0.47019300
                         5.79963530           0.35852090
    S   3 1.00
                        15.53961600          -0.11077750
                         3.59993360          -0.14802630
                         1.01376180           1.13076700
    P   3 1.00
                        15.53961600           0.07087430
                         3.59993360           0.33975280
                         1.01376180           0.72715860
    S   1 1.00
                         0.27000580           1.00000000
    P   1 1.00
                         0.27000580           1.00000000
    ****
    H   2
    S   3 1.00
                        18.73113700           0.03349460
                         2.82539370           0.23472695
                         0.64012170           0.81375733
    S   1 1.00
                         0.16127780           1.00000000
    ****
    H   3
    S   3 1.00
                        18.73113700           0.03349460
                         2.82539370           0.23472695
                         0.64012170           0.81375733
    S   1 1.00
                         0.16127780           1.00000000
    ****


    Number of DOCI configurations:       1287

    ==> Begin oo-DOCI iterations <==


       iter   iter(CI)   iter(oo)                E(CI)                E(oo)                 |dE|
          0         7           1     -76.009696603581     -76.014782346177      76.014782346177
          1         7           2     -76.017629360581     -76.022229384223       0.007447038046
          2         7           3     -76.029594161830     -76.040187058112       0.017957673889
          3         7           4     -76.047195651723     -76.048632814728       0.008445756616
          4         7           5     -76.048960390351     -76.049295523489       0.000662708761
          5         7           6     -76.049304902289     -76.049486311428       0.000190787940
          6         7           7     -76.049487535283     -76.049631769293       0.000145457865
          7         7           8     -76.049632726129     -76.049788877692       0.000157108399
          8         7           9     -76.049789684950     -76.050166030033       0.000377152341
          9         7          10     -76.050173254503     -76.051349446187       0.001183416154
         10         7          11     -76.051467117349     -76.051714110219       0.000364664032
         11         7          12     -76.051725194279     -76.051907085662       0.000192975443
         12         7          13     -76.051920362383     -76.052163075634       0.000255989972
         13         7          14     -76.052171231550     -76.052305164777       0.000142089143
         14         7          15     -76.052308787844     -76.052410944021       0.000105779243
         15         7          16     -76.052413398218     -76.052494815579       0.000083871558
         16         7          17     -76.052496828847     -76.052556582772       0.000061767193
         17         7          18     -76.052558300489     -76.052624019008       0.000067436236
         18         7          19     -76.052625362664     -76.052671662468       0.000047643460
         19         7          20     -76.052672841677     -76.052709747750       0.000038085282
         20         7          21     -76.052710723277     -76.052733955925       0.000024208175
         21         7          22     -76.052734776899     -76.052767173228       0.000033217302
         22         7          23     -76.052767804672     -76.052786989764       0.000019816537
         23         7          24     -76.052787523249     -76.052799080315       0.000012090551
         24         7          25     -76.052799509782     -76.052815264338       0.000016184023
         25         7          26     -76.052815600312     -76.052824425878       0.000009161540
         26         7          27     -76.052824698682     -76.052831854210       0.000007428333
         27         7          28     -76.052832060514     -76.052837223450       0.000005369240
         28         7          29     -76.052837388538     -76.052840441241       0.000003217791
         29         7          30     -76.052840568721     -76.052844175023       0.000003733781
         30         7          31     -76.052844267974     -76.052846118053       0.000001943030
         31         7          32     -76.052846189493     -76.052847823021       0.000001704968
         32         7          33     -76.052847874402     -76.052848832408       0.000001009387
         33         7          34     -76.052848870923     -76.052849655729       0.000000823322
         34         7          35     -76.052849682720     -76.052850139783       0.000000484054
         35         7          36     -76.052850159479     -76.052850534222       0.000000394438
         36         7          37     -76.052850547731     -76.052850740132       0.000000205910
         37         7          38     -76.052850749752     -76.052850936161       0.000000196030
         38         7          39     -76.052850942595     -76.052851042851       0.000000106689
         39         7          40     -76.052851047207     -76.052851111341       0.000000068491
         40         7          41     -76.052851114320     -76.052851157277       0.000000045935
         41         7          42     -76.052851159206     -76.052851183097       0.000000025820
         42         7          43     -76.052851184382     -76.052851203900       0.000000020803
         43         7          44     -76.052851204715     -76.052851215241       0.000000011340
         44         7          45     -76.052851215759     -76.052851221711       0.000000006470
         45         7          46     -76.052851222044     -76.052851226437       0.000000004726
         46         7          47     -76.052851226641     -76.052851229020       0.000000002583
         47         7          48     -76.052851229145     -76.052851230550       0.000000001530
         48         7          49     -76.052851230627     -76.052851231443       0.000000000892
         49         7          50     -76.052851231489     -76.052851231986       0.000000000543
         50         7          18     -76.052851232013     -76.052851232511       0.000000000525
         51         7          16     -76.052851232620     -76.052851232661       0.000000000151
         52         7           1     -76.052851232677     -76.052851232677       0.000000000016

      oo-DOCI iterations converged!

    * DOCI total energy:                  -76.052851232677


        DOCI one-electron energy =    -122.156342424725
        DOCI two-electron energy =      37.302025627480
        * DOCI total energy      =     -76.052851232677


 # Natural Orbital Occupation Numbers (spin free) #
 Irrep: 1
      1:  1.9999919
      2:  1.9928666
      3:  1.9755362
      4:  1.9755362
      5:  1.9928663
      6:  0.0238325
      7:  0.0238325
      8:  0.0011226
      9:  0.0011226
     10:  0.0064940
     11:  0.0064936
     12:  0.0001525
     13:  0.0001525

    SCF total energy..................................................PASSED
    DOCI total energy.................................................PASSED

    Psi4 stopped on: Friday, 10 July 2020 08:58AM
    Psi4 wall time for execution: 0:00:07.67

*** Psi4 exiting successfully. Buy a developer a beer!
