
    -----------------------------------------------------------------------
          Psi4: An Open-Source Ab Initio Electronic Structure Package
                               Psi4 1.4a2.dev397 

                         Git: Rev {master} b3df9b2 dirty


    R. M. Parrish, L. A. Burns, D. G. A. Smith, A. C. Simmonett,
    A. E. DePrince III, E. G. Hohenstein, U. Bozkaya, A. Yu. Sokolov,
    R. Di Remigio, R. M. Richard, J. F. Gonthier, A. M. James,
    H. R. McAlexander, A. Kumar, M. Saitow, X. Wang, B. P. Pritchard,
    P. Verma, H. F. Schaefer III, K. Patkowski, R. A. King, E. F. Valeev,
    F. A. Evangelista, J. M. Turney, T. D. Crawford, and C. D. Sherrill,
    J. Chem. Theory Comput. 13(7) pp 3185--3197 (2017).
    (doi: 10.1021/acs.jctc.7b00174)


                         Additional Contributions by
    P. Kraus, H. Kruse, M. H. Lechner, M. C. Schieber, R. A. Shaw,
    A. Alenaizan, R. Galvelis, Z. L. Glick, S. Lehtola, and J. P. Misiewicz

    -----------------------------------------------------------------------


    Psi4 started on: Saturday, 11 July 2020 08:53PM

    Process ID: 44327
    Host:       Eugenes-MacBook-Air.local
    PSIDATADIR: /Users/deprince/edeprince3/psi4/install/master/share/psi4
    Memory:     500.0 MiB
    Threads:    1
    
  ==> Input File <==

--------------------------------------------------------------------------

# job description:
print('        H2O / 6-31g / pp2RDM, scf_type = DF, rOH = 1.0 A, aHOH = 104.5')

sys.path.insert(0, '../../..')
import hilbert

molecule h2o {
0 1
O
H 1 1.0
H 1 1.0 2 104.5
symmetry c1
}

set {

  reference rhf
  basis 6-31g
  scf_type df

  e_convergence 1e-10
  r_convergence 1e-8
  orbopt_gradient_convergence 1e-6
  orbopt_energy_convergence 1e-8

  localize_orbitals true
  noisy_orbitals true
  optimize_orbitals true
  orbopt_maxiter 1
  maxiter 10000

  p2rdm_algorithm lbfgs

}

en = energy('pp2rdm')

ref_scf    = -75.98014193580194 # TEST
ref_pp2rdm = -76.052804542359   # TEST

compare_values(ref_scf, variable("SCF TOTAL ENERGY"), 8, "SCF total energy") # TEST
compare_values(ref_pp2rdm, variable("CURRENT ENERGY"), 5, "pp2RDM total energy") # TEST
--------------------------------------------------------------------------

Scratch directory: /tmp/

*** tstart() called on Eugenes-MacBook-Air.local
*** at Sat Jul 11 20:53:13 2020

   => Loading Basis Set <=

    Name: 6-31G
    Role: ORBITAL
    Keyword: BASIS
    atoms 1   entry O          line   117 file /Users/deprince/edeprince3/psi4/install/master/share/psi4/basis/6-31g.gbs 
    atoms 2-3 entry H          line    26 file /Users/deprince/edeprince3/psi4/install/master/share/psi4/basis/6-31g.gbs 


         ---------------------------------------------------------
                                   SCF
               by Justin Turney, Rob Parrish, Andy Simmonett
                          and Daniel G. A. Smith
                              RHF Reference
                        1 Threads,    500 MiB Core
         ---------------------------------------------------------

  ==> Geometry <==

    Molecular point group: c1
    Full point group: C2v

    Geometry (in Angstrom), charge = 0, multiplicity = 1:

       Center              X                  Y                   Z               Mass       
    ------------   -----------------  -----------------  -----------------  -----------------
         O            0.000000000000     0.000000000000    -0.068516219320    15.994914619570
         H            0.000000000000    -0.790689573744     0.543701060715     1.007825032230
         H            0.000000000000     0.790689573744     0.543701060715     1.007825032230

  Running in c1 symmetry.

  Rotational constants: A =     25.12555  B =     13.37733  C =      8.72955 [cm^-1]
  Rotational constants: A = 753245.07149  B = 401042.16706  C = 261705.25473 [MHz]
  Nuclear repulsion =    8.801465564567374

  Charge       = 0
  Multiplicity = 1
  Electrons    = 10
  Nalpha       = 5
  Nbeta        = 5

  ==> Algorithm <==

  SCF Algorithm Type is DF.
  DIIS enabled.
  MOM disabled.
  Fractional occupation disabled.
  Guess Type is SAD.
  Energy threshold   = 1.00e-10
  Density threshold  = 1.00e-08
  Integral threshold = 0.00e+00

  ==> Primary Basis <==

  Basis Set: 6-31G
    Blend: 6-31G
    Number of shells: 9
    Number of basis function: 13
    Number of Cartesian functions: 13
    Spherical Harmonics?: false
    Max angular momentum: 1

   => Loading Basis Set <=

    Name: (6-31G AUX)
    Role: JKFIT
    Keyword: DF_BASIS_SCF
    atoms 1   entry O          line   221 file /Users/deprince/edeprince3/psi4/install/master/share/psi4/basis/cc-pvdz-jkfit.gbs 
    atoms 2-3 entry H          line    51 file /Users/deprince/edeprince3/psi4/install/master/share/psi4/basis/cc-pvdz-jkfit.gbs 

  ==> Pre-Iterations <==

   -------------------------------------------------------
    Irrep   Nso     Nmo     Nalpha   Nbeta   Ndocc  Nsocc
   -------------------------------------------------------
     A         13      13       0       0       0       0
   -------------------------------------------------------
    Total      13      13       5       5       5       0
   -------------------------------------------------------

  ==> Integral Setup <==

  ==> DiskDFJK: Density-Fitted J/K Matrices <==

    J tasked:                  Yes
    K tasked:                  Yes
    wK tasked:                  No
    OpenMP threads:              1
    Integrals threads:           1
    Memory [MiB]:              375
    Algorithm:                Core
    Integral Cache:           SAVE
    Schwarz Cutoff:          1E-12
    Fitting Condition:       1E-10

   => Auxiliary Basis Set <=

  Basis Set: (6-31G AUX)
    Blend: CC-PVDZ-JKFIT
    Number of shells: 42
    Number of basis function: 131
    Number of Cartesian functions: 131
    Spherical Harmonics?: false
    Max angular momentum: 3

  Minimum eigenvalue in the overlap matrix is 7.3923788795E-02.
  Reciprocal condition number of the overlap matrix is 2.1980826342E-02.
    Using symmetric orthogonalization.
  SCF Guess: Superposition of Atomic Densities via on-the-fly atomic UHF.

  ==> Iterations <==

                           Total Energy        Delta E     RMS |[F,P]|

   @DF-RHF iter SAD:   -75.45941871343828   -7.54594e+01   0.00000e+00 
   @DF-RHF iter   1:   -75.90434666105367   -4.44928e-01   3.09953e-02 DIIS
   @DF-RHF iter   2:   -75.95857164768282   -5.42250e-02   1.90214e-02 DIIS
   @DF-RHF iter   3:   -75.97973621451969   -2.11646e-02   1.56674e-03 DIIS
   @DF-RHF iter   4:   -75.98012651826689   -3.90304e-04   3.11867e-04 DIIS
   @DF-RHF iter   5:   -75.98014154101817   -1.50228e-05   4.14320e-05 DIIS
   @DF-RHF iter   6:   -75.98014191790431   -3.76886e-07   8.27072e-06 DIIS
   @DF-RHF iter   7:   -75.98014193491713   -1.70128e-08   1.79874e-06 DIIS
   @DF-RHF iter   8:   -75.98014193578133   -8.64205e-10   3.33255e-07 DIIS
   @DF-RHF iter   9:   -75.98014193580164   -2.03073e-11   3.10076e-08 DIIS
   @DF-RHF iter  10:   -75.98014193580194   -2.98428e-13   2.58167e-09 DIIS
  Energy and wave function converged.


  ==> Post-Iterations <==

    Orbital Energies [Eh]
    ---------------------

    Doubly Occupied:                                                      

       1A    -20.568888     2A     -1.334712     3A     -0.686875  
       4A     -0.554298     5A     -0.499284  

    Virtual:                                                              

       6A      0.193417     7A      0.287599     8A      1.041506  
       9A      1.130380    10A      1.164432    11A      1.220999  
      12A      1.368964    13A      1.693510  

    Final Occupation by Irrep:
              A 
    DOCC [     5 ]

  @DF-RHF Final Energy:   -75.98014193580194

   => Energetics <=

    Nuclear Repulsion Energy =              8.8014655645673745
    One-Electron Energy =                -122.2751012239349109
    Two-Electron Energy =                  37.4934937235655994
    Total Energy =                        -75.9801419358019245

Computation Completed


Properties will be evaluated at   0.000000,   0.000000,   0.000000 [a0]

Properties computed using the SCF density matrix

  Nuclear Dipole Moment: [e a0]
     X:     0.0000      Y:     0.0000      Z:     1.0191

  Electronic Dipole Moment: [e a0]
     X:    -0.0000      Y:     0.0000      Z:     0.0213

  Dipole Moment: [e a0]
     X:    -0.0000      Y:     0.0000      Z:     1.0404     Total:     1.0404

  Dipole Moment: [D]
     X:    -0.0000      Y:     0.0000      Z:     2.6444     Total:     2.6444


*** tstop() called on Eugenes-MacBook-Air.local at Sat Jul 11 20:53:14 2020
Module time:
	user time   =       0.32 seconds =       0.01 minutes
	system time =       0.01 seconds =       0.00 minutes
	total time  =          1 seconds =       0.02 minutes
Total time:
	user time   =       0.32 seconds =       0.01 minutes
	system time =       0.01 seconds =       0.00 minutes
	total time  =          1 seconds =       0.02 minutes
 MINTS: Wrapper to libmints.
   by Justin Turney

   Calculation information:
      Number of threads:                 1
      Number of atoms:                   3
      Number of AO shells:               9
      Number of SO shells:               9
      Number of primitives:             22
      Number of atomic orbitals:        13
      Number of basis functions:        13

      Number of irreps:                  1
      Integral cutoff                 0.00e+00
      Number of functions per irrep: [  13 ]

 OEINTS: Overlap, kinetic, potential, dipole, and quadrupole integrals
         stored in file 35.

      Computing two-electron integrals...done
      Computed 2263 non-zero two-electron integrals.
        Stored in file 33.


Reading options from the HILBERT block
Calling plugin hilbert.so.


  ==> Pipek-Mezey Localizer <==

    Convergence =   1.000E-08
    Maxiter     =          50

    Iteration                   Metric       Residual
    @PM    0   4.0403577598919860E+00              -
    @PM    1   4.2293811168321778E+00   4.678382E-02
    @PM    2   4.2298843280346654E+00   1.189799E-04
    @PM    3   4.2298866055815463E+00   5.384419E-07
    @PM    4   4.2298866262938315E+00   4.896653E-09

    PM Localizer converged.



        ***************************************************
        *                                                 *
        *    pp2RDM                                       *
        *                                                 *
        *    pair parametric 2RDM                         *
        *                                                 *
        ***************************************************

    ==> Convergence parameters <==

        r_convergence:                  1.000e-08
        e_convergence:                  1.000e-10
        maximum iterations:                 10000

    ==> Orbital optimization parameters <==

        localize orbitals?                    yes
        optimize orbitals?                    yes
        g_convergence:                  1.000e-06
        e_convergence:                  1.000e-08
        maximum iterations:                     1
        exact diagonal Hessian:              true
        number of DIIS vectors:                 0
        print iteration info:               false

    ==> Transform three-electron integrals <==

        Time for integral transformation:     0.01 s

    Molecular point group: c1
    Full point group: C2v

    Geometry (in Angstrom), charge = 0, multiplicity = 1:

       Center              X                  Y                   Z               Mass       
    ------------   -----------------  -----------------  -----------------  -----------------
         O            0.000000000000     0.000000000000    -0.068516219320    15.994914619570
         H            0.000000000000    -0.790689573744     0.543701060715     1.007825032230
         H            0.000000000000     0.790689573744     0.543701060715     1.007825032230

  -AO BASIS SET INFORMATION:
    Name                   = 6-31G
    Blend                  = 6-31G
    Total number of shells = 9
    Number of primitives   = 22
    Number of AO           = 13
    Number of SO           = 13
    Maximum AM             = 1
    Spherical Harmonics    = FALSE

  -Contraction Scheme:
    Atom   Type   All Primitives // Shells:
   ------ ------ --------------------------
       1     O     10s 4p // 3s 2p 
       2     H     4s // 2s 
       3     H     4s // 2s 

  ==> AO Basis Functions <==

    [ 6-31G ]
    cartesian
    ****
    O   1
    S   6 1.00
                      5484.67170000           0.00183110
                       825.23495000           0.01395010
                       188.04696000           0.06844510
                        52.96450000           0.23271430
                        16.89757000           0.47019300
                         5.79963530           0.35852090
    S   3 1.00
                        15.53961600          -0.11077750
                         3.59993360          -0.14802630
                         1.01376180           1.13076700
    P   3 1.00
                        15.53961600           0.07087430
                         3.59993360           0.33975280
                         1.01376180           0.72715860
    S   1 1.00
                         0.27000580           1.00000000
    P   1 1.00
                         0.27000580           1.00000000
    ****
    H   2
    S   3 1.00
                        18.73113700           0.03349460
                         2.82539370           0.23472695
                         0.64012170           0.81375733
    S   1 1.00
                         0.16127780           1.00000000
    ****
    H   3
    S   3 1.00
                        18.73113700           0.03349460
                         2.82539370           0.23472695
                         0.64012170           0.81375733
    S   1 1.00
                         0.16127780           1.00000000
    ****

    ==> Begin oo-pp2RDM iterations <==


        p2RDM one-electron energy =    -122.158148249768
        p2RDM two-electron energy =      37.348043010174
        * p2RDM total energy      =     -76.008639675027

    ==> Orbital Optimization <==

        p2RDM one-electron energy =    -122.167950112398
        p2RDM two-electron energy =      37.352089362218
        * p2RDM total energy      =     -76.014395185612

    ==> oo-pp2RDM summary <==

       iter   iter(CI)   iter(oo)           E(CI)           E(oo)            |dE|
          0        36           1  -76.0086396750  -76.0143951856   76.0143951856

        p2RDM one-electron energy =    -122.155810472405
        p2RDM two-electron energy =      37.337019632934
        * p2RDM total energy      =     -76.017325274903

    ==> Orbital Optimization <==

        p2RDM one-electron energy =    -122.106904814075
        p2RDM two-electron energy =      37.282345695368
        * p2RDM total energy      =     -76.023093554140

    ==> oo-pp2RDM summary <==

       iter   iter(CI)   iter(oo)           E(CI)           E(oo)            |dE|
          1        25           2  -76.0173252749  -76.0230935541    0.0086983685

        p2RDM one-electron energy =    -122.101323181216
        p2RDM two-electron energy =      37.260753430455
        * p2RDM total energy      =     -76.039104186194

    ==> Orbital Optimization <==

        p2RDM one-electron energy =    -122.219630334006
        p2RDM two-electron energy =      37.371507616529
        * p2RDM total energy      =     -76.046657152910

    ==> oo-pp2RDM summary <==

       iter   iter(CI)   iter(oo)           E(CI)           E(oo)            |dE|
          2        26           3  -76.0391041862  -76.0466571529    0.0235635988

        p2RDM one-electron energy =    -122.209129551448
        p2RDM two-electron energy =      37.359340493297
        * p2RDM total energy      =     -76.048323493583

    ==> Orbital Optimization <==

        p2RDM one-electron energy =    -122.161082166343
        p2RDM two-electron energy =      37.310368601716
        * p2RDM total energy      =     -76.049248000060

    ==> oo-pp2RDM summary <==

       iter   iter(CI)   iter(oo)           E(CI)           E(oo)            |dE|
          3        20           4  -76.0483234936  -76.0492480001    0.0025908472

        p2RDM one-electron energy =    -122.158305310580
        p2RDM two-electron energy =      37.307481753354
        * p2RDM total energy      =     -76.049357992659

    ==> Orbital Optimization <==

        p2RDM one-electron energy =    -122.172441953921
        p2RDM two-electron energy =      37.321337220617
        * p2RDM total energy      =     -76.049639168736

    ==> oo-pp2RDM summary <==

       iter   iter(CI)   iter(oo)           E(CI)           E(oo)            |dE|
          4        15           5  -76.0493579927  -76.0496391687    0.0003911687

        p2RDM one-electron energy =    -122.171802173186
        p2RDM two-electron energy =      37.320684818634
        * p2RDM total energy      =     -76.049651789984

    ==> Orbital Optimization <==

        p2RDM one-electron energy =    -122.164030097468
        p2RDM two-electron energy =      37.312807436809
        * p2RDM total energy      =     -76.049757096092

    ==> oo-pp2RDM summary <==

       iter   iter(CI)   iter(oo)           E(CI)           E(oo)            |dE|
          5        15           6  -76.0496517900  -76.0497570961    0.0001179274

        p2RDM one-electron energy =    -122.163504429153
        p2RDM two-electron energy =      37.312277680570
        * p2RDM total energy      =     -76.049761184016

    ==> Orbital Optimization <==

        p2RDM one-electron energy =    -122.165250464114
        p2RDM two-electron energy =      37.313977530648
        * p2RDM total energy      =     -76.049807368898

    ==> oo-pp2RDM summary <==

       iter   iter(CI)   iter(oo)           E(CI)           E(oo)            |dE|
          6        15           7  -76.0497611840  -76.0498073689    0.0000502728

        p2RDM one-electron energy =    -122.165007478796
        p2RDM two-electron energy =      37.313728430221
        * p2RDM total energy      =     -76.049813484007

    ==> Orbital Optimization <==

        p2RDM one-electron energy =    -122.157443696974
        p2RDM two-electron energy =      37.306055252398
        * p2RDM total energy      =     -76.049922880009

    ==> oo-pp2RDM summary <==

       iter   iter(CI)   iter(oo)           E(CI)           E(oo)            |dE|
          7        11           8  -76.0498134840  -76.0499228800    0.0001155111

        p2RDM one-electron energy =    -122.157219266536
        p2RDM two-electron energy =      37.305751891839
        * p2RDM total energy      =     -76.050001810130

    ==> Orbital Optimization <==

        p2RDM one-electron energy =    -122.163200311428
        p2RDM two-electron energy =      37.309819605015
        * p2RDM total energy      =     -76.051915141845

    ==> oo-pp2RDM summary <==

       iter   iter(CI)   iter(oo)           E(CI)           E(oo)            |dE|
          8        17           9  -76.0500018101  -76.0519151418    0.0019922618

        p2RDM one-electron energy =    -122.160207764603
        p2RDM two-electron energy =      37.306191515320
        * p2RDM total energy      =     -76.052550684716

    ==> Orbital Optimization <==

        p2RDM one-electron energy =    -122.157946065155
        p2RDM two-electron energy =      37.303789284791
        * p2RDM total energy      =     -76.052691215797

    ==> oo-pp2RDM summary <==

       iter   iter(CI)   iter(oo)           E(CI)           E(oo)            |dE|
          9        14          10  -76.0525506847  -76.0526912158    0.0007760740

        p2RDM one-electron energy =    -122.157852326520
        p2RDM two-electron energy =      37.303671198687
        * p2RDM total energy      =     -76.052715563265

    ==> Orbital Optimization <==

        p2RDM one-electron energy =    -122.157376286800
        p2RDM two-electron energy =      37.303148275088
        * p2RDM total energy      =     -76.052762447145

    ==> oo-pp2RDM summary <==

       iter   iter(CI)   iter(oo)           E(CI)           E(oo)            |dE|
         10        15          11  -76.0527155633  -76.0527624471    0.0000712313

        p2RDM one-electron energy =    -122.157264069651
        p2RDM two-electron energy =      37.303031709141
        * p2RDM total energy      =     -76.052766795942

    ==> Orbital Optimization <==

        p2RDM one-electron energy =    -122.157398089948
        p2RDM two-electron energy =      37.303144430652
        * p2RDM total energy      =     -76.052788094729

    ==> oo-pp2RDM summary <==

       iter   iter(CI)   iter(oo)           E(CI)           E(oo)            |dE|
         11        13          12  -76.0527667959  -76.0527880947    0.0000256476

        p2RDM one-electron energy =    -122.157408296781
        p2RDM two-electron energy =      37.303152289294
        * p2RDM total energy      =     -76.052790442920

    ==> Orbital Optimization <==

        p2RDM one-electron energy =    -122.156609358136
        p2RDM two-electron energy =      37.302344849636
        * p2RDM total energy      =     -76.052798943932

    ==> oo-pp2RDM summary <==

       iter   iter(CI)   iter(oo)           E(CI)           E(oo)            |dE|
         12         7          13  -76.0527904429  -76.0527989439    0.0000108492

        p2RDM one-electron energy =    -122.156546450010
        p2RDM two-electron energy =      37.302281209825
        * p2RDM total energy      =     -76.052799675617

    ==> Orbital Optimization <==

        p2RDM one-electron energy =    -122.156651071742
        p2RDM two-electron energy =      37.302382828713
        * p2RDM total energy      =     -76.052802678462

    ==> oo-pp2RDM summary <==

       iter   iter(CI)   iter(oo)           E(CI)           E(oo)            |dE|
         13        10          14  -76.0527996756  -76.0528026785    0.0000037345

        p2RDM one-electron energy =    -122.156654916200
        p2RDM two-electron energy =      37.302386296273
        * p2RDM total energy      =     -76.052803055360

    ==> Orbital Optimization <==

        p2RDM one-electron energy =    -122.156683880851
        p2RDM two-electron energy =      37.302414293295
        * p2RDM total energy      =     -76.052804022990

    ==> oo-pp2RDM summary <==

       iter   iter(CI)   iter(oo)           E(CI)           E(oo)            |dE|
         14        11          15  -76.0528030554  -76.0528040230    0.0000013445

        p2RDM one-electron energy =    -122.156669208152
        p2RDM two-electron energy =      37.302399487183
        * p2RDM total energy      =     -76.052804156401

    ==> Orbital Optimization <==

        p2RDM one-electron energy =    -122.156635162874
        p2RDM two-electron energy =      37.302365179930
        * p2RDM total energy      =     -76.052804418376

    ==> oo-pp2RDM summary <==

       iter   iter(CI)   iter(oo)           E(CI)           E(oo)            |dE|
         15         9          16  -76.0528041564  -76.0528044184    0.0000003954

        p2RDM one-electron energy =    -122.156639519306
        p2RDM two-electron energy =      37.302369500785
        * p2RDM total energy      =     -76.052804453953

    ==> Orbital Optimization <==

        p2RDM one-electron energy =    -122.156633997920
        p2RDM two-electron energy =      37.302363915668
        * p2RDM total energy      =     -76.052804517684

    ==> oo-pp2RDM summary <==

       iter   iter(CI)   iter(oo)           E(CI)           E(oo)            |dE|
         16         4          17  -76.0528044540  -76.0528045177    0.0000000993

        p2RDM one-electron energy =    -122.156632011384
        p2RDM two-electron energy =      37.302361917260
        * p2RDM total energy      =     -76.052804529557

    ==> Orbital Optimization <==

        p2RDM one-electron energy =    -122.156631960451
        p2RDM two-electron energy =      37.302361857188
        * p2RDM total energy      =     -76.052804538696

    ==> oo-pp2RDM summary <==

       iter   iter(CI)   iter(oo)           E(CI)           E(oo)            |dE|
         17         5          18  -76.0528045296  -76.0528045387    0.0000000210

        p2RDM one-electron energy =    -122.156632297474
        p2RDM two-electron energy =      37.302362192313
        * p2RDM total energy      =     -76.052804540594

    ==> Orbital Optimization <==

        p2RDM one-electron energy =    -122.156632487376
        p2RDM two-electron energy =      37.302362380962
        * p2RDM total energy      =     -76.052804541847

    ==> oo-pp2RDM summary <==

       iter   iter(CI)   iter(oo)           E(CI)           E(oo)            |dE|
         18         3          19  -76.0528045406  -76.0528045418    0.0000000032

        p2RDM one-electron energy =    -122.156632324420
        p2RDM two-electron energy =      37.302362217721
        * p2RDM total energy      =     -76.052804542132

    ==> Orbital Optimization <==

        p2RDM one-electron energy =    -122.156631725257
        p2RDM two-electron energy =      37.302361618395
        * p2RDM total energy      =     -76.052804542294

    ==> oo-pp2RDM summary <==

       iter   iter(CI)   iter(oo)           E(CI)           E(oo)            |dE|
         19         2          20  -76.0528045421  -76.0528045423    0.0000000004

        p2RDM one-electron energy =    -122.156631736404
        p2RDM two-electron energy =      37.302361629501
        * p2RDM total energy      =     -76.052804542336

    ==> Orbital Optimization <==

        p2RDM one-electron energy =    -122.156632117565
        p2RDM two-electron energy =      37.302362010641
        * p2RDM total energy      =     -76.052804542357

    ==> oo-pp2RDM summary <==

       iter   iter(CI)   iter(oo)           E(CI)           E(oo)            |dE|
         20         2          16  -76.0528045423  -76.0528045424    0.0000000001

      oo-pp2RDM iterations converged!

    * oo-pp2RDM total energy:                  -76.052804542357


 # Natural Orbital Occupation Numbers (spin free) #
 Irrep: 1
      1:  1.9999920
      2:  1.9928883
      3:  1.9755650
      4:  1.9755650
      5:  1.9928878
      6:  0.0237944
      7:  0.0237943
      8:  0.0011203
      9:  0.0011203
     10:  0.0064850
     11:  0.0064844
     12:  0.0001516
     13:  0.0001516

    SCF total energy..................................................PASSED
    pp2RDM total energy...............................................PASSED

    Psi4 stopped on: Saturday, 11 July 2020 08:53PM
    Psi4 wall time for execution: 0:00:01.83

*** Psi4 exiting successfully. Buy a developer a beer!
