
    -----------------------------------------------------------------------
          Psi4: An Open-Source Ab Initio Electronic Structure Package
                               Psi4 1.4a2.dev397 

                         Git: Rev {master} b3df9b2 dirty


    R. M. Parrish, L. A. Burns, D. G. A. Smith, A. C. Simmonett,
    A. E. DePrince III, E. G. Hohenstein, U. Bozkaya, A. Yu. Sokolov,
    R. Di Remigio, R. M. Richard, J. F. Gonthier, A. M. James,
    H. R. McAlexander, A. Kumar, M. Saitow, X. Wang, B. P. Pritchard,
    P. Verma, H. F. Schaefer III, K. Patkowski, R. A. King, E. F. Valeev,
    F. A. Evangelista, J. M. Turney, T. D. Crawford, and C. D. Sherrill,
    J. Chem. Theory Comput. 13(7) pp 3185--3197 (2017).
    (doi: 10.1021/acs.jctc.7b00174)


                         Additional Contributions by
    P. Kraus, H. Kruse, M. H. Lechner, M. C. Schieber, R. A. Shaw,
    A. Alenaizan, R. Galvelis, Z. L. Glick, S. Lehtola, and J. P. Misiewicz

    -----------------------------------------------------------------------


    Psi4 started on: Friday, 10 July 2020 11:35AM

    Process ID: 68071
    Host:       illegally-used-at.fsu
    PSIDATADIR: /Users/deprince/edeprince3/psi4/install/master/share/psi4
    Memory:     500.0 MiB
    Threads:    1
    
  ==> Input File <==

--------------------------------------------------------------------------

# job description:
print('        H2O / 6-31g / pp2RDM, scf_type = DF, rOH = 1.0 A, aHOH = 104.5')

sys.path.insert(0, '../../..')
import hilbert

molecule h2o {
0 1
O
H 1 1.0
H 1 1.0 2 104.5
symmetry c1
}

set {

  reference rhf
  basis 6-31g
  scf_type df

  e_convergence 1e-10
  r_convergence 1e-8
  orbopt_gradient_convergence 1e-6
  orbopt_energy_convergence 1e-8

  localize_orbitals true
  noisy_orbitals true
  optimize_orbitals true
  orbopt_maxiter 1
  maxiter 10000

}

en = energy('pp2rdm')

ref_scf    = -75.98014193580194 # TEST
ref_pp2rdm = -76.052804542359   # TEST

compare_values(ref_scf, variable("SCF TOTAL ENERGY"), 8, "SCF total energy") # TEST
compare_values(ref_pp2rdm, variable("CURRENT ENERGY"), 5, "pp2RDM total energy") # TEST
--------------------------------------------------------------------------

Scratch directory: /tmp/

*** tstart() called on illegally-used-at.fsu
*** at Fri Jul 10 11:35:10 2020

   => Loading Basis Set <=

    Name: 6-31G
    Role: ORBITAL
    Keyword: BASIS
    atoms 1   entry O          line   117 file /Users/deprince/edeprince3/psi4/install/master/share/psi4/basis/6-31g.gbs 
    atoms 2-3 entry H          line    26 file /Users/deprince/edeprince3/psi4/install/master/share/psi4/basis/6-31g.gbs 


         ---------------------------------------------------------
                                   SCF
               by Justin Turney, Rob Parrish, Andy Simmonett
                          and Daniel G. A. Smith
                              RHF Reference
                        1 Threads,    500 MiB Core
         ---------------------------------------------------------

  ==> Geometry <==

    Molecular point group: c1
    Full point group: C2v

    Geometry (in Angstrom), charge = 0, multiplicity = 1:

       Center              X                  Y                   Z               Mass       
    ------------   -----------------  -----------------  -----------------  -----------------
         O            0.000000000000     0.000000000000    -0.068516219320    15.994914619570
         H            0.000000000000    -0.790689573744     0.543701060715     1.007825032230
         H            0.000000000000     0.790689573744     0.543701060715     1.007825032230

  Running in c1 symmetry.

  Rotational constants: A =     25.12555  B =     13.37733  C =      8.72955 [cm^-1]
  Rotational constants: A = 753245.07149  B = 401042.16706  C = 261705.25473 [MHz]
  Nuclear repulsion =    8.801465564567374

  Charge       = 0
  Multiplicity = 1
  Electrons    = 10
  Nalpha       = 5
  Nbeta        = 5

  ==> Algorithm <==

  SCF Algorithm Type is DF.
  DIIS enabled.
  MOM disabled.
  Fractional occupation disabled.
  Guess Type is SAD.
  Energy threshold   = 1.00e-10
  Density threshold  = 1.00e-08
  Integral threshold = 0.00e+00

  ==> Primary Basis <==

  Basis Set: 6-31G
    Blend: 6-31G
    Number of shells: 9
    Number of basis function: 13
    Number of Cartesian functions: 13
    Spherical Harmonics?: false
    Max angular momentum: 1

   => Loading Basis Set <=

    Name: (6-31G AUX)
    Role: JKFIT
    Keyword: DF_BASIS_SCF
    atoms 1   entry O          line   221 file /Users/deprince/edeprince3/psi4/install/master/share/psi4/basis/cc-pvdz-jkfit.gbs 
    atoms 2-3 entry H          line    51 file /Users/deprince/edeprince3/psi4/install/master/share/psi4/basis/cc-pvdz-jkfit.gbs 

  ==> Pre-Iterations <==

   -------------------------------------------------------
    Irrep   Nso     Nmo     Nalpha   Nbeta   Ndocc  Nsocc
   -------------------------------------------------------
     A         13      13       0       0       0       0
   -------------------------------------------------------
    Total      13      13       5       5       5       0
   -------------------------------------------------------

  ==> Integral Setup <==

  ==> DiskDFJK: Density-Fitted J/K Matrices <==

    J tasked:                  Yes
    K tasked:                  Yes
    wK tasked:                  No
    OpenMP threads:              1
    Integrals threads:           1
    Memory [MiB]:              375
    Algorithm:                Core
    Integral Cache:           SAVE
    Schwarz Cutoff:          1E-12
    Fitting Condition:       1E-10

   => Auxiliary Basis Set <=

  Basis Set: (6-31G AUX)
    Blend: CC-PVDZ-JKFIT
    Number of shells: 42
    Number of basis function: 131
    Number of Cartesian functions: 131
    Spherical Harmonics?: false
    Max angular momentum: 3

  Minimum eigenvalue in the overlap matrix is 7.3923788795E-02.
  Reciprocal condition number of the overlap matrix is 2.1980826342E-02.
    Using symmetric orthogonalization.
  SCF Guess: Superposition of Atomic Densities via on-the-fly atomic UHF.

  ==> Iterations <==

                           Total Energy        Delta E     RMS |[F,P]|

   @DF-RHF iter SAD:   -75.45941871343828   -7.54594e+01   0.00000e+00 
   @DF-RHF iter   1:   -75.90434666105367   -4.44928e-01   3.09953e-02 DIIS
   @DF-RHF iter   2:   -75.95857164768282   -5.42250e-02   1.90214e-02 DIIS
   @DF-RHF iter   3:   -75.97973621451969   -2.11646e-02   1.56674e-03 DIIS
   @DF-RHF iter   4:   -75.98012651826689   -3.90304e-04   3.11867e-04 DIIS
   @DF-RHF iter   5:   -75.98014154101817   -1.50228e-05   4.14320e-05 DIIS
   @DF-RHF iter   6:   -75.98014191790431   -3.76886e-07   8.27072e-06 DIIS
   @DF-RHF iter   7:   -75.98014193491713   -1.70128e-08   1.79874e-06 DIIS
   @DF-RHF iter   8:   -75.98014193578133   -8.64205e-10   3.33255e-07 DIIS
   @DF-RHF iter   9:   -75.98014193580164   -2.03073e-11   3.10076e-08 DIIS
   @DF-RHF iter  10:   -75.98014193580194   -2.98428e-13   2.58167e-09 DIIS
  Energy and wave function converged.


  ==> Post-Iterations <==

    Orbital Energies [Eh]
    ---------------------

    Doubly Occupied:                                                      

       1A    -20.568888     2A     -1.334712     3A     -0.686875  
       4A     -0.554298     5A     -0.499284  

    Virtual:                                                              

       6A      0.193417     7A      0.287599     8A      1.041506  
       9A      1.130380    10A      1.164432    11A      1.220999  
      12A      1.368964    13A      1.693510  

    Final Occupation by Irrep:
              A 
    DOCC [     5 ]

  @DF-RHF Final Energy:   -75.98014193580194

   => Energetics <=

    Nuclear Repulsion Energy =              8.8014655645673745
    One-Electron Energy =                -122.2751012239349109
    Two-Electron Energy =                  37.4934937235655994
    Total Energy =                        -75.9801419358019245

Computation Completed


Properties will be evaluated at   0.000000,   0.000000,   0.000000 [a0]

Properties computed using the SCF density matrix

  Nuclear Dipole Moment: [e a0]
     X:     0.0000      Y:     0.0000      Z:     1.0191

  Electronic Dipole Moment: [e a0]
     X:    -0.0000      Y:     0.0000      Z:     0.0213

  Dipole Moment: [e a0]
     X:    -0.0000      Y:     0.0000      Z:     1.0404     Total:     1.0404

  Dipole Moment: [D]
     X:    -0.0000      Y:     0.0000      Z:     2.6444     Total:     2.6444


*** tstop() called on illegally-used-at.fsu at Fri Jul 10 11:35:11 2020
Module time:
	user time   =       0.35 seconds =       0.01 minutes
	system time =       0.02 seconds =       0.00 minutes
	total time  =          1 seconds =       0.02 minutes
Total time:
	user time   =       0.35 seconds =       0.01 minutes
	system time =       0.02 seconds =       0.00 minutes
	total time  =          1 seconds =       0.02 minutes
 MINTS: Wrapper to libmints.
   by Justin Turney

   Calculation information:
      Number of threads:                 1
      Number of atoms:                   3
      Number of AO shells:               9
      Number of SO shells:               9
      Number of primitives:             22
      Number of atomic orbitals:        13
      Number of basis functions:        13

      Number of irreps:                  1
      Integral cutoff                 0.00e+00
      Number of functions per irrep: [  13 ]

 OEINTS: Overlap, kinetic, potential, dipole, and quadrupole integrals
         stored in file 35.

      Computing two-electron integrals...done
      Computed 2263 non-zero two-electron integrals.
        Stored in file 33.


Reading options from the HILBERT block
Calling plugin hilbert.so.


  ==> Pipek-Mezey Localizer <==

    Convergence =   1.000E-08
    Maxiter     =          50

    Iteration                   Metric       Residual
    @PM    0   4.0403577598919860E+00              -
    @PM    1   4.2293811168321778E+00   4.678382E-02
    @PM    2   4.2298843280346654E+00   1.189799E-04
    @PM    3   4.2298866055815463E+00   5.384419E-07
    @PM    4   4.2298866262938315E+00   4.896653E-09

    PM Localizer converged.



        ***************************************************
        *                                                 *
        *    pp2RDM                                       *
        *                                                 *
        *    pair parametric 2RDM                         *
        *                                                 *
        ***************************************************

    ==> Convergence parameters <==

        r_convergence:                  1.000e-08
        e_convergence:                  1.000e-10
        maximum iterations:                 10000

    ==> Orbital optimization parameters <==

        localize orbitals?                    yes
        optimize orbitals?                    yes
        g_convergence:                  1.000e-06
        e_convergence:                  1.000e-08
        maximum iterations:                     1
        exact diagonal Hessian:              true
        number of DIIS vectors:                 0
        print iteration info:               false

    ==> Transform three-electron integrals <==

        Time for integral transformation:     0.01 s

    Molecular point group: c1
    Full point group: C2v

    Geometry (in Angstrom), charge = 0, multiplicity = 1:

       Center              X                  Y                   Z               Mass       
    ------------   -----------------  -----------------  -----------------  -----------------
         O            0.000000000000     0.000000000000    -0.068516219320    15.994914619570
         H            0.000000000000    -0.790689573744     0.543701060715     1.007825032230
         H            0.000000000000     0.790689573744     0.543701060715     1.007825032230

  -AO BASIS SET INFORMATION:
    Name                   = 6-31G
    Blend                  = 6-31G
    Total number of shells = 9
    Number of primitives   = 22
    Number of AO           = 13
    Number of SO           = 13
    Maximum AM             = 1
    Spherical Harmonics    = FALSE

  -Contraction Scheme:
    Atom   Type   All Primitives // Shells:
   ------ ------ --------------------------
       1     O     10s 4p // 3s 2p 
       2     H     4s // 2s 
       3     H     4s // 2s 

  ==> AO Basis Functions <==

    [ 6-31G ]
    cartesian
    ****
    O   1
    S   6 1.00
                      5484.67170000           0.00183110
                       825.23495000           0.01395010
                       188.04696000           0.06844510
                        52.96450000           0.23271430
                        16.89757000           0.47019300
                         5.79963530           0.35852090
    S   3 1.00
                        15.53961600          -0.11077750
                         3.59993360          -0.14802630
                         1.01376180           1.13076700
    P   3 1.00
                        15.53961600           0.07087430
                         3.59993360           0.33975280
                         1.01376180           0.72715860
    S   1 1.00
                         0.27000580           1.00000000
    P   1 1.00
                         0.27000580           1.00000000
    ****
    H   2
    S   3 1.00
                        18.73113700           0.03349460
                         2.82539370           0.23472695
                         0.64012170           0.81375733
    S   1 1.00
                         0.16127780           1.00000000
    ****
    H   3
    S   3 1.00
                        18.73113700           0.03349460
                         2.82539370           0.23472695
                         0.64012170           0.81375733
    S   1 1.00
                         0.16127780           1.00000000
    ****

    ==> Begin oo-pp2RDM iterations <==


    ==> Begin pp2RDM iterations <==

        iter          energy       d(Energy)          |d(T)|
           0   -0.0271036923    0.0271036923    0.0892439304
           1   -0.0305326792    0.0034289869    0.0146368508
           2   -0.0314743209    0.0009416417    0.0036865347
           3   -0.0314899041    0.0000155833    0.0002807729
           4   -0.0314900610    0.0000001569    0.0000207170
           5   -0.0314900366   -0.0000000244    0.0000017356
           6   -0.0314900393    0.0000000027    0.0000002679
           7   -0.0314900395    0.0000000002    0.0000000328
           8   -0.0314900394   -0.0000000000    0.0000000048

        p2RDM one-electron energy =    -122.241407503743
        p2RDM two-electron energy =      37.432322511252
        * p2RDM total energy      =     -76.007619427924

    ==> Orbital Optimization <==

        p2RDM one-electron energy =    -122.152519569562
        p2RDM two-electron energy =      37.337079870481
        * p2RDM total energy      =     -76.013974134514

    ==> oo-pp2RDM summary <==

       iter   iter(CI)   iter(oo)           E(CI)           E(oo)            |dE|
          0         9           1  -76.0076194279  -76.0139741345   76.0139741345

    ==> Begin pp2RDM iterations <==

        iter          energy       d(Energy)          |d(T)|
           0   -0.0365256695    0.0365256695    0.0256660829
           1   -0.0371979694    0.0006722999    0.0051094934
           2   -0.0373716509    0.0001736815    0.0011573763
           3   -0.0373718516    0.0000002007    0.0001026725
           4   -0.0373718707    0.0000000191    0.0000195376
           5   -0.0373719125    0.0000000418    0.0000026914
           6   -0.0373719192    0.0000000067    0.0000002761
           7   -0.0373719186   -0.0000000006    0.0000000405
           8   -0.0373719183   -0.0000000003    0.0000000046
           9   -0.0373719183    0.0000000000    0.0000000011

        p2RDM one-electron energy =    -122.140303055579
        p2RDM two-electron energy =      37.322347571425
        * p2RDM total energy      =     -76.016489919586

    ==> Orbital Optimization <==

        p2RDM one-electron energy =    -122.121425457251
        p2RDM two-electron energy =      37.296940256478
        * p2RDM total energy      =     -76.023019636205

    ==> oo-pp2RDM summary <==

       iter   iter(CI)   iter(oo)           E(CI)           E(oo)            |dE|
          1        10           2  -76.0164899196  -76.0230196362    0.0090455017

    ==> Begin pp2RDM iterations <==

        iter          energy       d(Energy)          |d(T)|
           0   -0.0527017951    0.0527017951    0.0582577211
           1   -0.0568873286    0.0041855334    0.0177113229
           2   -0.0588834334    0.0019961049    0.0056488489
           3   -0.0588990305    0.0000155971    0.0001463395
           4   -0.0589003161    0.0000012856    0.0000227915
           5   -0.0589001608   -0.0000001553    0.0000035076
           6   -0.0589001409   -0.0000000199    0.0000003933
           7   -0.0589001428    0.0000000019    0.0000000698
           8   -0.0589001427   -0.0000000001    0.0000000115
           9   -0.0589001424   -0.0000000003    0.0000000115
          10   -0.0589001423   -0.0000000001    0.0000000026

        p2RDM one-electron energy =    -122.115723040740
        p2RDM two-electron energy =      37.275567454784
        * p2RDM total energy      =     -76.038690021389

    ==> Orbital Optimization <==

        p2RDM one-electron energy =    -122.224590141278
        p2RDM two-electron energy =      37.377052634720
        * p2RDM total energy      =     -76.046071941991

    ==> oo-pp2RDM summary <==

       iter   iter(CI)   iter(oo)           E(CI)           E(oo)            |dE|
          2        11           3  -76.0386900214  -76.0460719420    0.0230523058

    ==> Begin pp2RDM iterations <==

        iter          energy       d(Energy)          |d(T)|
           0   -0.0658322273    0.0658322273    0.0177657397
           1   -0.0671351796    0.0013029523    0.0049429608
           2   -0.0677200285    0.0005848489    0.0015088807
           3   -0.0677370774    0.0000170489    0.0000804874
           4   -0.0677370509   -0.0000000264    0.0000061831
           5   -0.0677369958   -0.0000000551    0.0000005119
           6   -0.0677369993    0.0000000035    0.0000000335
           7   -0.0677369992   -0.0000000001    0.0000000051
           8   -0.0677369991   -0.0000000000    0.0000000010

        p2RDM one-electron energy =    -122.215854515954
        p2RDM two-electron energy =      37.366941065878
        * p2RDM total energy      =     -76.047447885509

    ==> Orbital Optimization <==

        p2RDM one-electron energy =    -122.173096275179
        p2RDM two-electron energy =      37.323086530833
        * p2RDM total energy      =     -76.048544179779

    ==> oo-pp2RDM summary <==

       iter   iter(CI)   iter(oo)           E(CI)           E(oo)            |dE|
          3         9           4  -76.0474478855  -76.0485441798    0.0024722378

    ==> Begin pp2RDM iterations <==

        iter          energy       d(Energy)          |d(T)|
           0   -0.0692932696    0.0692932696    0.0134004922
           1   -0.0695947511    0.0003014815    0.0020854121
           2   -0.0696536685    0.0000589174    0.0003784216
           3   -0.0696516639   -0.0000020046    0.0000131579
           4   -0.0696510086   -0.0000006553    0.0000026275
           5   -0.0696509800   -0.0000000286    0.0000002030
           6   -0.0696509816    0.0000000016    0.0000000265
           7   -0.0696509821    0.0000000005    0.0000000036
           8   -0.0696509822    0.0000000001    0.0000000004

        p2RDM one-electron energy =    -122.168238902587
        p2RDM two-electron energy =      37.317472594986
        * p2RDM total energy      =     -76.049300743033

    ==> Orbital Optimization <==

        p2RDM one-electron energy =    -122.164872992424
        p2RDM two-electron energy =      37.313841878900
        * p2RDM total energy      =     -76.049565548957

    ==> oo-pp2RDM summary <==

       iter   iter(CI)   iter(oo)           E(CI)           E(oo)            |dE|
          4         9           5  -76.0493007430  -76.0495655490    0.0010213692

    ==> Begin pp2RDM iterations <==

        iter          energy       d(Energy)          |d(T)|
           0   -0.0698546449    0.0698546449    0.0025079504
           1   -0.0699294078    0.0000747629    0.0003836932
           2   -0.0699586943    0.0000292865    0.0000940640
           3   -0.0699632054    0.0000045111    0.0000132732
           4   -0.0699632364    0.0000000310    0.0000005776
           5   -0.0699632282   -0.0000000082    0.0000001220
           6   -0.0699632267   -0.0000000014    0.0000000180
           7   -0.0699632267   -0.0000000001    0.0000000015

        p2RDM one-electron energy =    -122.164300976096
        p2RDM two-electron energy =      37.313245131767
        * p2RDM total energy      =     -76.049590279762

    ==> Orbital Optimization <==

        p2RDM one-electron energy =    -122.166016082435
        p2RDM two-electron energy =      37.314688086841
        * p2RDM total energy      =     -76.049862431027

    ==> oo-pp2RDM summary <==

       iter   iter(CI)   iter(oo)           E(CI)           E(oo)            |dE|
          5         8           6  -76.0495902798  -76.0498624310    0.0002968821

    ==> Begin pp2RDM iterations <==

        iter          energy       d(Energy)          |d(T)|
           0   -0.0701214868    0.0701214868    0.0017621752
           1   -0.0702150361    0.0000935493    0.0003414727
           2   -0.0702534088    0.0000383727    0.0000996888
           3   -0.0702560557    0.0000026469    0.0000087717
           4   -0.0702560915    0.0000000358    0.0000005266
           5   -0.0702560880   -0.0000000035    0.0000000918
           6   -0.0702560871   -0.0000000009    0.0000000155
           7   -0.0702560871   -0.0000000000    0.0000000012

        p2RDM one-electron energy =    -122.165118016288
        p2RDM two-electron energy =      37.313777510999
        * p2RDM total energy      =     -76.049874940721

    ==> Orbital Optimization <==

        p2RDM one-electron energy =    -122.163442133169
        p2RDM two-electron energy =      37.310361419882
        * p2RDM total energy      =     -76.051615148720

    ==> oo-pp2RDM summary <==

       iter   iter(CI)   iter(oo)           E(CI)           E(oo)            |dE|
          6         8           7  -76.0498749407  -76.0516151487    0.0017527177

    ==> Begin pp2RDM iterations <==

        iter          energy       d(Energy)          |d(T)|
           0   -0.0722549449    0.0722549449    0.0094731636
           1   -0.0724516732    0.0001967283    0.0021640738
           2   -0.0725193538    0.0000676805    0.0005298236
           3   -0.0725204009    0.0000010471    0.0000131368
           4   -0.0725203718   -0.0000000291    0.0000009400
           5   -0.0725203600   -0.0000000118    0.0000001029
           6   -0.0725203583   -0.0000000017    0.0000000107
           7   -0.0725203581   -0.0000000002    0.0000000013
           8   -0.0725203581    0.0000000000    0.0000000001

        p2RDM one-electron energy =    -122.161242906098
        p2RDM two-electron energy =      37.307686977866
        * p2RDM total energy      =     -76.052090363664

    ==> Orbital Optimization <==

        p2RDM one-electron energy =    -122.159236985914
        p2RDM two-electron energy =      37.305367537202
        * p2RDM total energy      =     -76.052403884145

    ==> oo-pp2RDM summary <==

       iter   iter(CI)   iter(oo)           E(CI)           E(oo)            |dE|
          7         9           8  -76.0520903637  -76.0524038841    0.0007887354

    ==> Begin pp2RDM iterations <==

        iter          energy       d(Energy)          |d(T)|
           0   -0.0728250385    0.0728250385    0.0031938986
           1   -0.0728961638    0.0000711253    0.0005250002
           2   -0.0729150850    0.0000189211    0.0001086173
           3   -0.0729164717    0.0000013867    0.0000092731
           4   -0.0729166387    0.0000001671    0.0000006739
           5   -0.0729166695    0.0000000308    0.0000001016
           6   -0.0729166725    0.0000000029    0.0000000097
           7   -0.0729166727    0.0000000002    0.0000000010
           8   -0.0729166727    0.0000000000    0.0000000001

        p2RDM one-electron energy =    -122.158248125445
        p2RDM two-electron energy =      37.304333459847
        * p2RDM total energy      =     -76.052449101031

    ==> Orbital Optimization <==

        p2RDM one-electron energy =    -122.159626824131
        p2RDM two-electron energy =      37.305550112686
        * p2RDM total energy      =     -76.052611146877

    ==> oo-pp2RDM summary <==

       iter   iter(CI)   iter(oo)           E(CI)           E(oo)            |dE|
          8         9           9  -76.0524491010  -76.0526111469    0.0002072627

    ==> Begin pp2RDM iterations <==

        iter          energy       d(Energy)          |d(T)|
           0   -0.0730338799    0.0730338799    0.0017789732
           1   -0.0730679450    0.0000340652    0.0003751926
           2   -0.0730802055    0.0000122605    0.0000940585
           3   -0.0730810671    0.0000008616    0.0000048225
           4   -0.0730812658    0.0000001988    0.0000006536
           5   -0.0730812829    0.0000000171    0.0000000504
           6   -0.0730812837    0.0000000008    0.0000000032
           7   -0.0730812837    0.0000000001    0.0000000004

        p2RDM one-electron energy =    -122.159297518186
        p2RDM two-electron energy =      37.305205562615
        * p2RDM total energy      =     -76.052626391004

    ==> Orbital Optimization <==

        p2RDM one-electron energy =    -122.151420992310
        p2RDM two-electron energy =      37.297242208051
        * p2RDM total energy      =     -76.052713219691

    ==> oo-pp2RDM summary <==

       iter   iter(CI)   iter(oo)           E(CI)           E(oo)            |dE|
          9         8          10  -76.0526263910  -76.0527132197    0.0001020728

    ==> Begin pp2RDM iterations <==

        iter          energy       d(Energy)          |d(T)|
           0   -0.0731879430    0.0731879430    0.0014046255
           1   -0.0731909675    0.0000030246    0.0003217117
           2   -0.0731917512    0.0000007837    0.0000812512
           3   -0.0731916623   -0.0000000889    0.0000019131
           4   -0.0731916409   -0.0000000214    0.0000001146
           5   -0.0731916370   -0.0000000039    0.0000000128
           6   -0.0731916365   -0.0000000005    0.0000000016
           7   -0.0731916364   -0.0000000001    0.0000000003

        p2RDM one-electron energy =    -122.151388194074
        p2RDM two-electron energy =      37.297199451485
        * p2RDM total energy      =     -76.052723178022

    ==> Orbital Optimization <==

        p2RDM one-electron energy =    -122.155657454622
        p2RDM two-electron energy =      37.301427635462
        * p2RDM total energy      =     -76.052764254593

    ==> oo-pp2RDM summary <==

       iter   iter(CI)   iter(oo)           E(CI)           E(oo)            |dE|
         10         8          11  -76.0527231780  -76.0527642546    0.0000510349

    ==> Begin pp2RDM iterations <==

        iter          energy       d(Energy)          |d(T)|
           0   -0.0732187789    0.0732187789    0.0008450272
           1   -0.0732244327    0.0000056538    0.0001868236
           2   -0.0732261041    0.0000016714    0.0000468080
           3   -0.0732261038   -0.0000000003    0.0000013170
           4   -0.0732261101    0.0000000063    0.0000000853
           5   -0.0732261124    0.0000000023    0.0000000138
           6   -0.0732261127    0.0000000003    0.0000000013
           7   -0.0732261127    0.0000000000    0.0000000002

        p2RDM one-electron energy =    -122.155579508552
        p2RDM two-electron energy =      37.301346159869
        * p2RDM total energy      =     -76.052767784115

    ==> Orbital Optimization <==

        p2RDM one-electron energy =    -122.154319848874
        p2RDM two-electron energy =      37.300065529644
        * p2RDM total energy      =     -76.052788754663

    ==> oo-pp2RDM summary <==

       iter   iter(CI)   iter(oo)           E(CI)           E(oo)            |dE|
         11         8          12  -76.0527677841  -76.0527887547    0.0000245001

    ==> Begin pp2RDM iterations <==

        iter          energy       d(Energy)          |d(T)|
           0   -0.0732546306    0.0732546306    0.0006483465
           1   -0.0732564688    0.0000018382    0.0001525463
           2   -0.0732568159    0.0000003471    0.0000388060
           3   -0.0732567471   -0.0000000689    0.0000007553
           4   -0.0732567357   -0.0000000114    0.0000000466
           5   -0.0732567334   -0.0000000023    0.0000000069
           6   -0.0732567331   -0.0000000003    0.0000000010
           7   -0.0732567331   -0.0000000000    0.0000000001

        p2RDM one-electron energy =    -122.154281783432
        p2RDM two-electron energy =      37.300025324593
        * p2RDM total energy      =     -76.052790894272

    ==> Orbital Optimization <==

        p2RDM one-electron energy =    -122.158135889406
        p2RDM two-electron energy =      37.303871132744
        * p2RDM total energy      =     -76.052799192095

    ==> oo-pp2RDM summary <==

       iter   iter(CI)   iter(oo)           E(CI)           E(oo)            |dE|
         12         8          13  -76.0527908943  -76.0527991921    0.0000104374

    ==> Begin pp2RDM iterations <==

        iter          energy       d(Energy)          |d(T)|
           0   -0.0732670401    0.0732670401    0.0004740468
           1   -0.0732697373    0.0000026972    0.0001126943
           2   -0.0732705422    0.0000008049    0.0000287251
           3   -0.0732705407   -0.0000000015    0.0000005330
           4   -0.0732705457    0.0000000050    0.0000000383
           5   -0.0732705474    0.0000000017    0.0000000071
           6   -0.0732705477    0.0000000003    0.0000000009
           7   -0.0732705477    0.0000000000    0.0000000001

        p2RDM one-electron energy =    -122.158097066128
        p2RDM two-electron energy =      37.303831163605
        * p2RDM total energy      =     -76.052800337956

    ==> Orbital Optimization <==

        p2RDM one-electron energy =    -122.155696682908
        p2RDM two-electron energy =      37.301428002347
        * p2RDM total energy      =     -76.052803115994

    ==> oo-pp2RDM summary <==

       iter   iter(CI)   iter(oo)           E(CI)           E(oo)            |dE|
         13         8          14  -76.0528003380  -76.0528031160    0.0000039239

    ==> Begin pp2RDM iterations <==

        iter          energy       d(Energy)          |d(T)|
           0   -0.0732726201    0.0732726201    0.0002371484
           1   -0.0732734425    0.0000008224    0.0000555142
           2   -0.0732736307    0.0000001882    0.0000141101
           3   -0.0732736164   -0.0000000143    0.0000002793
           4   -0.0732736158   -0.0000000007    0.0000000174
           5   -0.0732736158    0.0000000000    0.0000000027

        p2RDM one-electron energy =    -122.155680717590
        p2RDM two-electron energy =      37.301411752159
        * p2RDM total energy      =     -76.052803400864

    ==> Orbital Optimization <==

        p2RDM one-electron energy =    -122.156372099800
        p2RDM two-electron energy =      37.302102343001
        * p2RDM total energy      =     -76.052804192232

    ==> oo-pp2RDM summary <==

       iter   iter(CI)   iter(oo)           E(CI)           E(oo)            |dE|
         14         6          15  -76.0528034009  -76.0528041922    0.0000010762

    ==> Begin pp2RDM iterations <==

        iter          energy       d(Energy)          |d(T)|
           0   -0.0732739303    0.0732739303    0.0001512045
           1   -0.0732739198   -0.0000000105    0.0000376327
           2   -0.0732739044   -0.0000000154    0.0000096714
           3   -0.0732739000   -0.0000000044    0.0000001196
           4   -0.0732738988   -0.0000000011    0.0000000085
           5   -0.0732738985   -0.0000000003    0.0000000014
           6   -0.0732738985   -0.0000000000    0.0000000001

        p2RDM one-electron energy =    -122.156371242277
        p2RDM two-electron energy =      37.302101365984
        * p2RDM total energy      =     -76.052804311725

    ==> Orbital Optimization <==

        p2RDM one-electron energy =    -122.156656046946
        p2RDM two-electron energy =      37.302386002085
        * p2RDM total energy      =     -76.052804480294

    ==> oo-pp2RDM summary <==

       iter   iter(CI)   iter(oo)           E(CI)           E(oo)            |dE|
         15         7          16  -76.0528043117  -76.0528044803    0.0000002881

    ==> Begin pp2RDM iterations <==

        iter          energy       d(Energy)          |d(T)|
           0   -0.0732743565    0.0732743565    0.0000750211
           1   -0.0732743986    0.0000000421    0.0000187886
           2   -0.0732744205    0.0000000219    0.0000048488
           3   -0.0732744236    0.0000000031    0.0000000800
           4   -0.0732744244    0.0000000008    0.0000000131
           5   -0.0732744245    0.0000000001    0.0000000012

        p2RDM one-electron energy =    -122.156656300677
        p2RDM two-electron energy =      37.302386226251
        * p2RDM total energy      =     -76.052804509859

    ==> Orbital Optimization <==

        p2RDM one-electron energy =    -122.156586845924
        p2RDM two-electron energy =      37.302316748711
        * p2RDM total energy      =     -76.052804532646

    ==> oo-pp2RDM summary <==

       iter   iter(CI)   iter(oo)           E(CI)           E(oo)            |dE|
         16         6          17  -76.0528045099  -76.0528045326    0.0000000524

    ==> Begin pp2RDM iterations <==

        iter          energy       d(Energy)          |d(T)|
           0   -0.0732743680    0.0732743680    0.0000302019
           1   -0.0732743601   -0.0000000078    0.0000076399
           2   -0.0732743542   -0.0000000059    0.0000019895
           3   -0.0732743528   -0.0000000014    0.0000000499
           4   -0.0732743525   -0.0000000003    0.0000000075
           5   -0.0732743525   -0.0000000000    0.0000000004

        p2RDM one-electron energy =    -122.156586610210
        p2RDM two-electron energy =      37.302316508201
        * p2RDM total energy      =     -76.052804537441

    ==> Orbital Optimization <==

        p2RDM one-electron energy =    -122.156622671535
        p2RDM two-electron energy =      37.302352566127
        * p2RDM total energy      =     -76.052804540840

    ==> oo-pp2RDM summary <==

       iter   iter(CI)   iter(oo)           E(CI)           E(oo)            |dE|
         17         6          18  -76.0528045374  -76.0528045408    0.0000000082

    ==> Begin pp2RDM iterations <==

        iter          energy       d(Energy)          |d(T)|
           0   -0.0732743939    0.0732743939    0.0000126801
           1   -0.0732743997    0.0000000058    0.0000032007
           2   -0.0732744028    0.0000000030    0.0000008304
           3   -0.0732744033    0.0000000005    0.0000000181
           4   -0.0732744034    0.0000000001    0.0000000029
           5   -0.0732744034    0.0000000000    0.0000000002

        p2RDM one-electron energy =    -122.156622718925
        p2RDM two-electron energy =      37.302352612669
        * p2RDM total energy      =     -76.052804541688

    ==> Orbital Optimization <==

        p2RDM one-electron energy =    -122.156628819939
        p2RDM two-electron energy =      37.302358713187
        * p2RDM total energy      =     -76.052804542185

    ==> oo-pp2RDM summary <==

       iter   iter(CI)   iter(oo)           E(CI)           E(oo)            |dE|
         18         6          19  -76.0528045417  -76.0528045422    0.0000000013

    ==> Begin pp2RDM iterations <==

        iter          energy       d(Energy)          |d(T)|
           0   -0.0732744102    0.0732744102    0.0000045006
           1   -0.0732744070   -0.0000000032    0.0000011422
           2   -0.0732744057   -0.0000000013    0.0000002991
           3   -0.0732744055   -0.0000000001    0.0000000090
           4   -0.0732744055   -0.0000000000    0.0000000012

        p2RDM one-electron energy =    -122.156628840377
        p2RDM two-electron energy =      37.302358733520
        * p2RDM total energy      =     -76.052804542290

    ==> Orbital Optimization <==

        p2RDM one-electron energy =    -122.156633661196
        p2RDM two-electron energy =      37.302363554287
        * p2RDM total energy      =     -76.052804542342

    ==> oo-pp2RDM summary <==

       iter   iter(CI)   iter(oo)           E(CI)           E(oo)            |dE|
         19         5          20  -76.0528045423  -76.0528045423    0.0000000002

    ==> Begin pp2RDM iterations <==

        iter          energy       d(Energy)          |d(T)|
           0   -0.0732744034    0.0732744034    0.0000016361
           1   -0.0732744038    0.0000000004    0.0000004113
           2   -0.0732744039    0.0000000002    0.0000001065
           3   -0.0732744039    0.0000000000    0.0000000021

        p2RDM one-electron energy =    -122.156633662930
        p2RDM two-electron energy =      37.302363556006
        * p2RDM total energy      =     -76.052804542356

    ==> Orbital Optimization <==

        p2RDM one-electron energy =    -122.156632643496
        p2RDM two-electron energy =      37.302362536571
        * p2RDM total energy      =     -76.052804542358

    ==> oo-pp2RDM summary <==

       iter   iter(CI)   iter(oo)           E(CI)           E(oo)            |dE|
         20         4           3  -76.0528045424  -76.0528045424    0.0000000000

      oo-pp2RDM iterations converged!

    * oo-pp2RDM total energy:                  -76.052804542358


 # Natural Orbital Occupation Numbers (spin free) #
 Irrep: 1
      1:  1.9999920
      2:  1.9928882
      3:  1.9755650
      4:  1.9755650
      5:  1.9928879
      6:  0.0237944
      7:  0.0237944
      8:  0.0011203
      9:  0.0011203
     10:  0.0064849
     11:  0.0064845
     12:  0.0001516
     13:  0.0001516

    SCF total energy..................................................PASSED
    pp2RDM total energy...............................................PASSED

    Psi4 stopped on: Friday, 10 July 2020 11:35AM
    Psi4 wall time for execution: 0:00:02.18

*** Psi4 exiting successfully. Buy a developer a beer!
