
    -----------------------------------------------------------------------
          Psi4: An Open-Source Ab Initio Electronic Structure Package
                               Psi4 1.4a2.dev397 

                         Git: Rev {master} b3df9b2 dirty


    R. M. Parrish, L. A. Burns, D. G. A. Smith, A. C. Simmonett,
    A. E. DePrince III, E. G. Hohenstein, U. Bozkaya, A. Yu. Sokolov,
    R. Di Remigio, R. M. Richard, J. F. Gonthier, A. M. James,
    H. R. McAlexander, A. Kumar, M. Saitow, X. Wang, B. P. Pritchard,
    P. Verma, H. F. Schaefer III, K. Patkowski, R. A. King, E. F. Valeev,
    F. A. Evangelista, J. M. Turney, T. D. Crawford, and C. D. Sherrill,
    J. Chem. Theory Comput. 13(7) pp 3185--3197 (2017).
    (doi: 10.1021/acs.jctc.7b00174)


                         Additional Contributions by
    P. Kraus, H. Kruse, M. H. Lechner, M. C. Schieber, R. A. Shaw,
    A. Alenaizan, R. Galvelis, Z. L. Glick, S. Lehtola, and J. P. Misiewicz

    -----------------------------------------------------------------------


    Psi4 started on: Thursday, 16 July 2020 09:25AM

    Process ID: 90593
    Host:       illegally-used-at.fsu
    PSIDATADIR: /Users/deprince/edeprince3/psi4/install/master/share/psi4
    Memory:     500.0 MiB
    Threads:    1
    
  ==> Input File <==

--------------------------------------------------------------------------
#! cc-pvdz N2 (6,6) active space Test DQG

# job description:
print('        N2 / cc-pVDZ / DQG+T2(6,6), scf_type = PK, rNN = 1.1 A')

sys.path.insert(0, '../../..')
import hilbert

molecule n2 {
0 1
n
n 1 r
}

set {
  basis cc-pvdz
  scf_type pk
  d_convergence      1e-10
  maxiter 500
  restricted_docc [ 2, 0, 0, 0, 0, 2, 0, 0 ]
  active          [ 1, 0, 1, 1, 0, 1, 1, 1 ]
}

set hilbert {
  positivity dqgt2
  r_convergence  1e-4
  e_convergence  5e-4
  maxiter 20000
  orbopt_maxiter 20
}

activate(n2)

n2.r     = 1.1
refscf   = -108.95379624015767 # TEST
refv2rdm = -109.091487394061   # TEST

energy('v2rdm-casscf')

compare_values(refscf, variable("SCF TOTAL ENERGY"), 8, "SCF total energy") # TEST
compare_values(refv2rdm, variable("CURRENT ENERGY"), 4, "v2RDM-CASSCF total energy") # TEST

--------------------------------------------------------------------------
Molecule: geometry: Molecule is not complete, please use 'update_geometry'
                    once all variables are set.
Molecule: Setting geometry variable r to 1.100000

Scratch directory: /tmp/

*** tstart() called on illegally-used-at.fsu
*** at Thu Jul 16 09:25:18 2020

   => Loading Basis Set <=

    Name: CC-PVDZ
    Role: ORBITAL
    Keyword: BASIS
    atoms 1-2 entry N          line   168 file /Users/deprince/edeprince3/psi4/install/master/share/psi4/basis/cc-pvdz.gbs 


         ---------------------------------------------------------
                                   SCF
               by Justin Turney, Rob Parrish, Andy Simmonett
                          and Daniel G. A. Smith
                              RHF Reference
                        1 Threads,    500 MiB Core
         ---------------------------------------------------------

  ==> Geometry <==

    Molecular point group: d2h
    Full point group: D_inf_h

    Geometry (in Angstrom), charge = 0, multiplicity = 1:

       Center              X                  Y                   Z               Mass       
    ------------   -----------------  -----------------  -----------------  -----------------
         N            0.000000000000     0.000000000000    -0.550000000000    14.003074004430
         N            0.000000000000     0.000000000000     0.550000000000    14.003074004430

  Running in d2h symmetry.

  Rotational constants: A = ************  B =      1.98984  C =      1.98984 [cm^-1]
  Rotational constants: A = ************  B =  59653.84489  C =  59653.84489 [MHz]
  Nuclear repulsion =   23.572439384390908

  Charge       = 0
  Multiplicity = 1
  Electrons    = 14
  Nalpha       = 7
  Nbeta        = 7

  ==> Algorithm <==

  SCF Algorithm Type is PK.
  DIIS enabled.
  MOM disabled.
  Fractional occupation disabled.
  Guess Type is SAD.
  Energy threshold   = 1.00e-08
  Density threshold  = 1.00e-10
  Integral threshold = 0.00e+00

  ==> Primary Basis <==

  Basis Set: CC-PVDZ
    Blend: CC-PVDZ
    Number of shells: 12
    Number of basis function: 28
    Number of Cartesian functions: 30
    Spherical Harmonics?: true
    Max angular momentum: 2

  ==> Pre-Iterations <==

   -------------------------------------------------------
    Irrep   Nso     Nmo     Nalpha   Nbeta   Ndocc  Nsocc
   -------------------------------------------------------
     Ag         7       7       0       0       0       0
     B1g        1       1       0       0       0       0
     B2g        3       3       0       0       0       0
     B3g        3       3       0       0       0       0
     Au         1       1       0       0       0       0
     B1u        7       7       0       0       0       0
     B2u        3       3       0       0       0       0
     B3u        3       3       0       0       0       0
   -------------------------------------------------------
    Total      28      28       7       7       7       0
   -------------------------------------------------------

  ==> Integral Setup <==

  Using in-core PK algorithm.
   Calculation information:
      Number of atoms:                   2
      Number of AO shells:              12
      Number of primitives:             44
      Number of atomic orbitals:        30
      Number of basis functions:        28

      Integral cutoff                 1.00e-12
      Number of threads:                 1

  Performing in-core PK
  Using 165242 doubles for integral storage.
  We computed 3081 shell quartets total.
  Whereas there are 3081 unique shell quartets.

  ==> DiskJK: Disk-Based J/K Matrices <==

    J tasked:                  Yes
    K tasked:                  Yes
    wK tasked:                  No
    Memory [MiB]:              375
    Schwarz Cutoff:          1E-12

    OpenMP threads:              1

  Minimum eigenvalue in the overlap matrix is 1.1767548982E-02.
  Reciprocal condition number of the overlap matrix is 4.1659319633E-03.
    Using symmetric orthogonalization.
  SCF Guess: Superposition of Atomic Densities via on-the-fly atomic UHF.

  ==> Iterations <==

                        Total Energy        Delta E     RMS |[F,P]|

   @RHF iter SAD:  -108.07311788444412   -1.08073e+02   0.00000e+00 
   @RHF iter   1:  -108.94833697184113   -8.75219e-01   8.83978e-03 DIIS
   @RHF iter   2:  -108.95355242772138   -5.21546e-03   1.59694e-03 DIIS
   @RHF iter   3:  -108.95377842162878   -2.25994e-04   4.11374e-04 DIIS
   @RHF iter   4:  -108.95379577087996   -1.73493e-05   6.76807e-05 DIIS
   @RHF iter   5:  -108.95379622685572   -4.55976e-07   1.19074e-05 DIIS
   @RHF iter   6:  -108.95379624077177   -1.39161e-08   7.17875e-07 DIIS
   @RHF iter   7:  -108.95379624081195   -4.01883e-11   3.18401e-08 DIIS
   @RHF iter   8:  -108.95379624081217   -2.13163e-13   2.96329e-09 DIIS
   @RHF iter   9:  -108.95379624081212    4.26326e-14   3.58948e-10 DIIS
   @RHF iter  10:  -108.95379624081214   -1.42109e-14   1.37296e-11 DIIS
  Energy and wave function converged.


  ==> Post-Iterations <==

    Orbital Energies [Eh]
    ---------------------

    Doubly Occupied:                                                      

       1Ag   -15.687167     1B1u  -15.683810     2Ag    -1.469497  
       2B1u   -0.774851     3Ag    -0.626026     1B2u   -0.607175  
       1B3u   -0.607175  

    Virtual:                                                              

       1B2g    0.174428     1B3g    0.174428     3B1u    0.593893  
       4Ag     0.820946     2B3u    0.872872     2B2u    0.872872  
       5Ag     0.991969     2B3g    1.050510     2B2g    1.050510  
       4B1u    1.140849     5B1u    1.640840     6Ag     1.758149  
       1B1g    1.758149     3B2u    1.879691     3B3u    1.879691  
       1Au     2.297394     6B1u    2.297394     7Ag     2.871857  
       3B2g    2.993863     3B3g    2.993863     7B1u    3.278667  

    Final Occupation by Irrep:
             Ag   B1g   B2g   B3g    Au   B1u   B2u   B3u 
    DOCC [     3,    0,    0,    0,    0,    2,    1,    1 ]

  @RHF Final Energy:  -108.95379624081214

   => Energetics <=

    Nuclear Repulsion Energy =             23.5724393843909077
    One-Electron Energy =                -194.1410688523273507
    Two-Electron Energy =                  61.6148332271242936
    Total Energy =                       -108.9537962408121388

Computation Completed


Properties will be evaluated at   0.000000,   0.000000,   0.000000 [a0]

Properties computed using the SCF density matrix

  Nuclear Dipole Moment: [e a0]
     X:     0.0000      Y:     0.0000      Z:     0.0000

  Electronic Dipole Moment: [e a0]
     X:     0.0000      Y:     0.0000      Z:     0.0000

  Dipole Moment: [e a0]
     X:     0.0000      Y:     0.0000      Z:     0.0000     Total:     0.0000

  Dipole Moment: [D]
     X:     0.0000      Y:     0.0000      Z:     0.0000     Total:     0.0000


*** tstop() called on illegally-used-at.fsu at Thu Jul 16 09:25:18 2020
Module time:
	user time   =       0.34 seconds =       0.01 minutes
	system time =       0.01 seconds =       0.00 minutes
	total time  =          0 seconds =       0.00 minutes
Total time:
	user time   =       0.34 seconds =       0.01 minutes
	system time =       0.01 seconds =       0.00 minutes
	total time  =          0 seconds =       0.00 minutes
 MINTS: Wrapper to libmints.
   by Justin Turney

   Calculation information:
      Number of threads:                 1
      Number of atoms:                   2
      Number of AO shells:              12
      Number of SO shells:               6
      Number of primitives:             44
      Number of atomic orbitals:        30
      Number of basis functions:        28

      Number of irreps:                  8
      Integral cutoff                 0.00e+00
      Number of functions per irrep: [   7    1    3    3    1    7    3    3 ]

 OEINTS: Overlap, kinetic, potential, dipole, and quadrupole integrals
         stored in file 35.

      Computing two-electron integrals...done
      Computed 10666 non-zero two-electron integrals.
        Stored in file 33.


Reading options from the HILBERT block
Calling plugin hilbert.so.




        ****************************************************
        *                                                  *
        *    v2RDM-CASSCF                                  *
        *                                                  *
        *    A variational 2-RDM-driven approach to the    *
        *    active space self-consistent field method     *
        *                                                  *
        ****************************************************


        The following papers should be cited when using v2RDM-CASSCF:

        J. Fosso-Tande, D. R. Nascimento, and A. E. DePrince III,
        Mol. Phys. 114, 423-430 (2015).

            URL: http://dx.doi.org/10.1080/00268976.2015.1078008

        J. Fosso-Tande, T.-S. Nguyen, G. Gidofalvi, and
        A. E. DePrince III, J. Chem. Theory Comput. accepted (2016).

            URL: http://dx.doi.org/10.1021/acs.jctc.6b00190



  ==> Convergence parameters <==

        r_convergence:                      1.000e-04
        e_convergence:                      5.000e-04
        cg_convergence:                     1.000e-09
        maxiter:                                20000
        cg_maxiter:                             10000

  ==> Active space details <==

        Number of frozen core orbitals:             0
        Number of restricted occupied orbitals:     4
        Number of active occupied orbitals:         3
        Number of active virtual orbitals:          3
        Number of restricted virtual orbitals:     18
        Number of frozen virtual orbitals:          0

        Irrep:             Ag, B1g, B2g, B3g,  Au, B1u, B2u, B3u 
 
        frozen_docc     [   0,   0,   0,   0,   0,   0,   0,   0 ]
        restricted_docc [   2,   0,   0,   0,   0,   2,   0,   0 ]
        active          [   1,   0,   1,   1,   0,   1,   1,   1 ]
        restricted_uocc [   4,   1,   2,   2,   1,   4,   2,   2 ]
        frozen_uocc     [   0,   0,   0,   0,   0,   0,   0,   0 ]

  ==> Orbital optimization parameters <==

        1-step algorithm:                    true
        g_convergence:                  1.000e-04
        e_convergence:                  1.000e-08
        maximum iterations:                    20
        frequency:                            500
        active-active rotations:            false
        exact diagonal Hessian:              true
        number of DIIS vectors:                 0
        print iteration info:               false

  ==> Memory requirements <==

        D2:                          0.00 mb
        Q2:                          0.00 mb
        G2:                          0.01 mb
        T2:                          0.19 mb

        Total number of variables:          27132
        Total number of constraints:        27031
        Total memory requirements:        1.75 mb

    ==> Transform two-electron integrals <==

	Presorting SO-basis two-electron integrals.
	Sorting File: SO Ints (nn|nn) nbuckets = 1
	Transforming the one-electron integrals and constructing Fock matrices
	Starting first half-transformation.
	Sorting half-transformed integrals.
	First half integral transformation complete.
	Starting second half-transformation.
	Two-electron integral transformation complete.

        Time for integral transformation:     0.03 s

    Molecular point group: d2h
    Full point group: D_inf_h

    Geometry (in Angstrom), charge = 0, multiplicity = 1:

       Center              X                  Y                   Z               Mass       
    ------------   -----------------  -----------------  -----------------  -----------------
         N            0.000000000000     0.000000000000    -0.550000000000    14.003074004430
         N            0.000000000000     0.000000000000     0.550000000000    14.003074004430

  -AO BASIS SET INFORMATION:
    Name                   = CC-PVDZ
    Blend                  = CC-PVDZ
    Total number of shells = 12
    Number of primitives   = 44
    Number of AO           = 30
    Number of SO           = 28
    Maximum AM             = 2
    Spherical Harmonics    = TRUE

  -Contraction Scheme:
    Atom   Type   All Primitives // Shells:
   ------ ------ --------------------------
       1     N     17s 4p 1d // 3s 2p 1d 
       2     N     17s 4p 1d // 3s 2p 1d 

  ==> AO Basis Functions <==

    [ CC-PVDZ ]
    spherical
    ****
    N   1
    S   8 1.00
                      9046.00000000           0.00070000
                      1357.00000000           0.00538900
                       309.30000000           0.02740600
                        87.73000000           0.10320700
                        28.56000000           0.27872300
                        10.21000000           0.44854000
                         3.83800000           0.27823800
                         0.74660000           0.01544000
    S   8 1.00
                      9046.00000000          -0.00015300
                      1357.00000000          -0.00120800
                       309.30000000          -0.00599200
                        87.73000000          -0.02454400
                        28.56000000          -0.06745900
                        10.21000000          -0.15807800
                         3.83800000          -0.12183100
                         0.74660000           0.54900300
    S   1 1.00
                         0.22480000           1.00000000
    P   3 1.00
                        13.55000000           0.03991900
                         2.91700000           0.21716900
                         0.79730000           0.51031900
    P   1 1.00
                         0.21850000           1.00000000
    D   1 1.00
                         0.81700000           1.00000000
    ****


        Read integrals......done.


    reference energy:        -108.953796240812
    frozen core energy:      -121.129833797239
    initial 2-RDM energy:     -93.112838826022

      oiter iiter        E(p)        E(d)      E gap)      mu     eps(p)     eps(d)
          0    53  -97.705236 1008.762071 1.106467e+03   1.000 2.15081e+02 3.54317e+02
          1    30 -107.859990 -1033.636297 9.257763e+02   1.000 1.04843e+01 1.71301e+02
          2    37 -108.052619 -233.058462 1.250058e+02   1.000 9.42368e+00 4.59701e+00
          3    31 -107.810641 -214.571182 1.067605e+02   1.000 7.65074e+00 2.55832e+00
          4    30 -107.714348 -193.689567 8.597522e+01   1.000 6.36770e+00 2.08072e+00
          5    35 -107.479032 -174.588755 6.710972e+01   1.000 5.36700e+00 1.83890e+00
          6    33 -107.449120 -159.287657 5.183854e+01   1.000 4.86941e+00 1.53098e+00
          7    35 -107.381841 -146.472795 3.909095e+01   1.000 4.17385e+00 1.32743e+00
          8    31 -107.303679 -136.297767 2.899409e+01   1.000 3.53939e+00 1.24916e+00
          9    35 -107.318089 -128.457111 2.113902e+01   1.000 3.22540e+00 1.04792e+00
         10    31 -107.298991 -122.031750 1.473276e+01   1.000 2.60304e+00 1.01206e+00
         11    35 -107.285617 -117.247956 9.962339e+00   1.000 2.18271e+00 9.51417e-01
         12    27 -107.311041 -113.799060 6.488019e+00   1.000 1.86996e+00 8.78308e-01
         13    29 -107.335032 -111.467451 4.132420e+00   1.000 1.60281e+00 7.27309e-01
         14    33 -107.352467 -109.779067 2.426600e+00   1.000 1.34790e+00 6.98259e-01
         15    27 -107.379259 -108.595789 1.216530e+00   1.000 1.05803e+00 6.55759e-01
         16    28 -107.405807 -108.081440 6.756332e-01   1.000 7.85297e-01 5.94712e-01
         17    28 -107.427058 -108.001797 5.747383e-01   1.000 5.56345e-01 4.42185e-01
         18    28 -107.451861 -107.956794 5.049338e-01   1.000 4.68272e-01 2.41379e-01
         19    32 -107.473833 -107.876488 4.026548e-01   1.000 4.12362e-01 1.81231e-01
         20    33 -107.498483 -107.722568 2.240847e-01   1.000 3.68676e-01 1.72747e-01
         21    33 -107.522721 -107.610777 8.805615e-02   1.000 3.34844e-01 1.67199e-01
         22    33 -107.547507 -107.532735 1.477154e-02   1.000 3.00438e-01 1.71893e-01
         23    29 -107.574100 -107.421189 1.529109e-01   1.000 2.74616e-01 1.69837e-01
         24    29 -107.599606 -107.379801 2.198048e-01   1.000 2.34218e-01 1.86774e-01
         25    28 -107.623996 -107.350834 2.731613e-01   1.000 2.06917e-01 1.72429e-01
         26    28 -107.649602 -107.304507 3.450952e-01   1.000 1.76033e-01 1.74277e-01
         27    28 -107.674368 -107.290394 3.839732e-01   1.000 1.57416e-01 1.67264e-01
         28    28 -107.699694 -107.268456 4.312378e-01   1.000 1.47062e-01 1.59981e-01
         29    29 -107.725336 -107.245284 4.800519e-01   1.000 1.37968e-01 1.59909e-01
         30    28 -107.750900 -107.228008 5.228921e-01   1.000 1.26959e-01 1.60382e-01
         31    28 -107.776738 -107.210562 5.661759e-01   1.000 1.11809e-01 1.65923e-01
         32    28 -107.801781 -107.204946 5.968349e-01   1.000 1.05256e-01 1.59784e-01
         33    28 -107.828005 -107.187123 6.408816e-01   1.000 9.89023e-02 1.60106e-01
         34    28 -107.853704 -107.179456 6.742478e-01   1.000 9.02834e-02 1.61053e-01
         35    28 -107.879903 -107.165302 7.146006e-01   1.000 5.10917e-02 1.74584e-01
         36    28 -107.904200 -107.179622 7.245790e-01   1.000 5.04110e-02 1.59924e-01
         37    29 -107.927091 -107.168041 7.590499e-01   1.000 1.03157e-01 1.58621e-01
         38    18 -107.948853 -107.186833 7.620201e-01   1.000 1.67640e-01 1.55821e-01
         39    20 -107.971012 -107.203595 7.674165e-01   1.000 2.27978e-01 1.49319e-01
         40    26 -107.989917 -107.286906 7.030108e-01   1.000 2.75362e-01 1.36322e-01
         41    26 -108.007648 -107.384867 6.227809e-01   1.000 3.02100e-01 1.20575e-01
         42    30 -108.021554 -107.524689 4.968653e-01   1.000 3.05798e-01 1.10330e-01
         43    29 -108.031972 -107.658536 3.734364e-01   1.000 2.89069e-01 1.08926e-01
         44    18 -108.039538 -107.747428 2.921105e-01   1.000 2.58310e-01 1.11964e-01
         45    29 -108.046156 -107.796153 2.500025e-01   1.000 2.22172e-01 1.14744e-01
         46    18 -108.052435 -107.808585 2.438499e-01   1.000 1.82705e-01 1.15847e-01
         47    18 -108.057997 -107.813914 2.440837e-01   1.000 1.42452e-01 1.15970e-01
         48    18 -108.063655 -107.808904 2.547515e-01   1.000 1.04089e-01 1.14546e-01
         49    18 -108.069873 -107.785947 2.839256e-01   1.000 6.95447e-02 1.12288e-01
         50    21 -108.077098 -107.752622 3.244762e-01   1.000 4.14197e-02 1.09822e-01
         51    18 -108.084911 -107.728104 3.568077e-01   1.000 2.75879e-02 1.07443e-01
         52    27 -108.093343 -107.702035 3.913074e-01   1.000 3.60041e-02 1.05466e-01
         53    18 -108.102404 -107.677486 4.249177e-01   1.000 5.18937e-02 1.03993e-01
         54    18 -108.112856 -107.644876 4.679804e-01   1.000 6.68687e-02 1.03003e-01
         55    21 -108.123917 -107.615965 5.079525e-01   1.000 7.95320e-02 1.02374e-01
         56    14 -108.134335 -107.618254 5.160806e-01   1.000 8.90080e-02 1.01917e-01
         57    18 -108.146398 -107.595169 5.512289e-01   1.000 9.64222e-02 1.01449e-01
         58    20 -108.156872 -107.592462 5.644098e-01   1.000 1.02126e-01 1.00817e-01
         59    18 -108.166734 -107.590708 5.760257e-01   1.000 1.10592e-01 9.98296e-02
         60    10 -108.176651 -107.595026 5.816251e-01   1.000 1.21636e-01 9.84690e-02
         61    18 -108.185091 -107.624396 5.606949e-01   1.000 1.34303e-01 9.68844e-02
         62    18 -108.194838 -107.630457 5.643809e-01   1.000 1.46360e-01 9.52866e-02
         63    18 -108.202367 -107.659460 5.429066e-01   1.000 1.57311e-01 9.38063e-02
         64    18 -108.208684 -107.686439 5.222449e-01   1.000 1.68462e-01 9.25557e-02
         65    18 -108.215298 -107.710763 5.045355e-01   1.000 1.78169e-01 9.15238e-02
         66    24 -108.221171 -107.741110 4.800618e-01   1.000 1.86887e-01 9.07206e-02
         67    16 -108.227730 -107.742158 4.855717e-01   1.000 1.92126e-01 9.00080e-02
         68    18 -108.233783 -107.768484 4.652995e-01   1.000 1.95039e-01 8.93488e-02
         69    20 -108.239735 -107.776365 4.633704e-01   1.000 1.97490e-01 8.86702e-02
         70    18 -108.246038 -107.776669 4.693685e-01   1.000 1.97220e-01 8.79201e-02
         71    21 -108.251848 -107.780576 4.712719e-01   1.000 1.96330e-01 8.72069e-02
         72    16 -108.257904 -107.775952 4.819516e-01   1.000 1.93358e-01 8.65469e-02
         73    23 -108.264895 -107.777676 4.872194e-01   1.000 1.90792e-01 8.59315e-02
         74    16 -108.270951 -107.777730 4.932204e-01   1.000 1.86525e-01 8.53399e-02
         75    16 -108.277576 -107.790319 4.872565e-01   1.000 1.81326e-01 8.47897e-02
         76    21 -108.284090 -107.781958 5.021318e-01   1.000 1.76889e-01 8.42251e-02
         77    16 -108.290262 -107.799478 4.907840e-01   1.000 1.70969e-01 8.35969e-02
         78    16 -108.296603 -107.801292 4.953113e-01   1.000 1.64027e-01 8.29496e-02
         79    18 -108.303105 -107.820718 4.823876e-01   1.000 1.56488e-01 8.23510e-02
         80    16 -108.309736 -107.835711 4.740249e-01   1.000 1.48246e-01 8.18443e-02
         81    18 -108.316207 -107.836281 4.799260e-01   1.000 1.39464e-01 8.13899e-02
         82    16 -108.322550 -107.847362 4.751873e-01   1.000 1.30994e-01 8.09379e-02
         83    16 -108.329023 -107.860643 4.683795e-01   1.000 1.23202e-01 8.04473e-02
         84    16 -108.335425 -107.864301 4.711237e-01   1.000 1.16455e-01 7.99680e-02
         85    16 -108.341936 -107.878534 4.634022e-01   1.000 1.11191e-01 7.95069e-02
         86    18 -108.348635 -107.878311 4.703239e-01   1.000 1.07315e-01 7.90741e-02
         87    14 -108.355080 -107.879533 4.755463e-01   1.000 1.05212e-01 7.86543e-02
         88    17 -108.361736 -107.887679 4.740571e-01   1.000 1.03865e-01 7.83930e-02
         89    14 -108.368319 -107.894262 4.740565e-01   1.000 1.03138e-01 7.78575e-02
         90    19 -108.374679 -107.906621 4.680585e-01   1.000 1.02064e-01 7.77035e-02
         91    16 -108.381075 -107.906592 4.744829e-01   1.000 1.00520e-01 7.71401e-02
         92    18 -108.387108 -107.923743 4.633654e-01   1.000 9.86729e-02 7.68705e-02
         93    16 -108.393094 -107.931903 4.611912e-01   1.000 9.66915e-02 7.63436e-02
         94    18 -108.399054 -107.936401 4.626531e-01   1.000 9.46897e-02 7.61943e-02
         95    16 -108.404692 -107.940895 4.637968e-01   1.000 9.33827e-02 7.55224e-02
         96    18 -108.410310 -107.946953 4.633565e-01   1.000 9.27508e-02 7.53427e-02
         97    15 -108.415126 -107.954630 4.604961e-01   1.000 9.35452e-02 7.49245e-02
         98    16 -108.420456 -107.951820 4.686362e-01   1.000 9.56560e-02 7.50986e-02
         99    18 -108.425543 -107.956744 4.687992e-01   1.000 9.98079e-02 7.43283e-02
        100    16 -108.429943 -107.960453 4.694898e-01   1.000 1.05028e-01 7.40446e-02
        101    16 -108.434445 -107.956654 4.777908e-01   1.000 1.10666e-01 7.37461e-02
        102    16 -108.438865 -107.945121 4.937436e-01   1.000 1.15980e-01 7.34634e-02
        103    18 -108.443264 -107.943936 4.993281e-01   1.000 1.20087e-01 7.32224e-02
        104    16 -108.447063 -107.943753 5.033102e-01   1.000 1.22453e-01 7.30607e-02
        105    16 -108.451438 -107.928910 5.225287e-01   1.000 1.22777e-01 7.29930e-02
        106    16 -108.455385 -107.927361 5.280232e-01   1.000 1.20818e-01 7.30386e-02
        107    16 -108.459733 -107.920101 5.396322e-01   1.000 1.16330e-01 7.31546e-02
        108    18 -108.464078 -107.914304 5.497747e-01   1.000 1.09551e-01 7.32979e-02
        109    16 -108.467912 -107.914372 5.535404e-01   1.000 1.00041e-01 7.34240e-02
        110    18 -108.472419 -107.913832 5.585863e-01   1.000 8.87492e-02 7.36172e-02
        111    10 -108.475839 -107.921807 5.540323e-01   1.000 7.59283e-02 7.38079e-02
        112    16 -108.478469 -107.923028 5.554405e-01   1.000 6.95587e-02 7.36980e-02
        113     7 -108.480405 -107.930702 5.497022e-01   1.000 7.60619e-02 7.29312e-02
        114    21 -108.482392 -107.955730 5.266619e-01   1.000 8.98386e-02 7.02552e-02
        115    27 -108.484009 -108.019181 4.648273e-01   1.000 1.00358e-01 6.64153e-02
        116    31 -108.487836 -108.105019 3.828170e-01   1.000 1.04629e-01 6.30151e-02
        117    26 -108.489954 -108.184559 3.053951e-01   1.000 1.05256e-01 6.01064e-02
        118    25 -108.492720 -108.230381 2.623391e-01   1.000 9.98663e-02 5.85861e-02
        119    21 -108.495709 -108.261314 2.343947e-01   1.000 8.95570e-02 5.86817e-02
        120    22 -108.502442 -108.273079 2.293629e-01   1.000 7.42144e-02 5.89256e-02
        121    18 -108.507313 -108.254960 2.523526e-01   1.000 6.14154e-02 5.88410e-02
        122    26 -108.512027 -108.228315 2.837122e-01   1.000 5.14079e-02 5.84025e-02
        123    18 -108.515946 -108.202787 3.131587e-01   1.000 4.49215e-02 5.79534e-02
        124    25 -108.520205 -108.171056 3.491499e-01   1.000 4.27443e-02 5.70619e-02
        125    18 -108.523376 -108.153920 3.694564e-01   1.000 4.27910e-02 5.63671e-02
        126    21 -108.526366 -108.134454 3.919115e-01   1.000 4.42997e-02 5.57051e-02
        127    18 -108.528974 -108.136075 3.928995e-01   1.000 4.61450e-02 5.50655e-02
        128    18 -108.531523 -108.144890 3.866329e-01   1.000 4.73611e-02 5.45216e-02
        129    18 -108.534537 -108.158004 3.765329e-01   1.000 4.71909e-02 5.40951e-02
        130    18 -108.537129 -108.179305 3.578236e-01   1.000 4.54200e-02 5.38877e-02
        131    18 -108.539546 -108.192798 3.467489e-01   1.000 4.10861e-02 5.38841e-02
        132    18 -108.542078 -108.206837 3.352415e-01   1.000 3.65869e-02 5.38669e-02
        133    16 -108.544872 -108.212409 3.324634e-01   1.000 3.17053e-02 5.39163e-02
        134    18 -108.547398 -108.214750 3.326481e-01   1.000 2.72659e-02 5.37627e-02
        135    18 -108.548456 -108.214323 3.341326e-01   1.000 2.70764e-02 5.30878e-02
        136    24 -108.548452 -108.216321 3.321311e-01   1.000 4.17904e-02 5.17329e-02
        137    18 -108.548735 -108.227562 3.211731e-01   1.000 5.86266e-02 4.96248e-02
        138    18 -108.549211 -108.248039 3.011717e-01   1.000 7.27771e-02 4.73309e-02
        139    27 -108.549631 -108.273570 2.760609e-01   1.000 8.32085e-02 4.53363e-02
        140    18 -108.550888 -108.298131 2.527567e-01   1.000 8.88628e-02 4.39767e-02
        141    18 -108.551133 -108.328421 2.227114e-01   1.000 8.73777e-02 4.33142e-02
        142    29 -108.550977 -108.353383 1.975937e-01   1.000 8.30545e-02 4.34404e-02
        143    18 -108.552751 -108.376638 1.761134e-01   1.000 7.58389e-02 4.37822e-02
        144    18 -108.555074 -108.389795 1.652798e-01   1.000 6.52256e-02 4.51308e-02
        145    18 -108.557485 -108.404222 1.532634e-01   1.000 5.32109e-02 4.51613e-02
        146    18 -108.559965 -108.407317 1.526489e-01   1.000 4.06729e-02 4.53152e-02
        147    18 -108.562493 -108.400564 1.619285e-01   1.000 2.91848e-02 4.51953e-02
        148    18 -108.565211 -108.386196 1.790150e-01   1.000 2.12741e-02 4.49075e-02
        149    18 -108.568040 -108.368341 1.996991e-01   1.000 1.98977e-02 4.44189e-02
        150    21 -108.571177 -108.347585 2.235924e-01   1.000 2.41974e-02 4.40205e-02
        151    18 -108.573797 -108.334219 2.395785e-01   1.000 3.01889e-02 4.36294e-02
        152    18 -108.576808 -108.311428 2.653797e-01   1.000 3.57186e-02 4.34724e-02
        153    18 -108.579758 -108.292674 2.870833e-01   1.000 3.98634e-02 4.35142e-02
        154    18 -108.582599 -108.281086 3.015133e-01   1.000 4.29806e-02 4.33136e-02
        155    16 -108.585362 -108.268608 3.167537e-01   1.000 4.48895e-02 4.31957e-02
        156    18 -108.587907 -108.259545 3.283617e-01   1.000 4.54491e-02 4.29678e-02
        157    15 -108.590160 -108.258880 3.312802e-01   1.000 4.53196e-02 4.25425e-02
        158    18 -108.591834 -108.270683 3.211514e-01   1.000 4.49896e-02 4.19953e-02
        159    20 -108.593723 -108.277039 3.166838e-01   1.000 4.40625e-02 4.14891e-02
        160    18 -108.595631 -108.293162 3.024687e-01   1.000 4.20774e-02 4.11810e-02
        161    18 -108.597373 -108.312847 2.845263e-01   1.000 3.92223e-02 4.11225e-02
        162    18 -108.599094 -108.326957 2.721368e-01   1.000 3.61133e-02 4.12182e-02
        163    18 -108.600725 -108.335320 2.654048e-01   1.000 3.32323e-02 4.13937e-02
        164    18 -108.601867 -108.343081 2.587862e-01   1.000 3.00321e-02 4.16064e-02
        165    18 -108.603087 -108.345202 2.578853e-01   1.000 2.72580e-02 4.17823e-02
        166    16 -108.604140 -108.346706 2.574345e-01   1.000 2.47020e-02 4.18895e-02
        167    16 -108.605112 -108.345748 2.593639e-01   1.000 2.20967e-02 4.19326e-02
        168    18 -108.606029 -108.339618 2.664112e-01   1.000 1.93370e-02 4.19470e-02
        169    18 -108.606946 -108.335360 2.715852e-01   1.000 1.64274e-02 4.18936e-02
        170    18 -108.607745 -108.330167 2.775780e-01   1.000 1.35674e-02 4.18285e-02
        171    18 -108.608671 -108.324505 2.841657e-01   1.000 1.11749e-02 4.17490e-02
        172    27 -108.609589 -108.321966 2.876228e-01   1.000 1.01141e-02 4.16382e-02
        173    18 -108.610597 -108.319705 2.908916e-01   1.000 1.07659e-02 4.15151e-02
        174    26 -108.611830 -108.317668 2.941620e-01   1.000 1.26682e-02 4.13861e-02
        175    18 -108.613099 -108.318533 2.945660e-01   1.000 1.47383e-02 4.12614e-02
        176    27 -108.614569 -108.318972 2.955966e-01   1.000 1.66628e-02 4.11501e-02
        177    18 -108.616127 -108.321319 2.948080e-01   1.000 1.78537e-02 4.10603e-02
        178    18 -108.617868 -108.322695 2.951731e-01   1.000 1.83815e-02 4.09931e-02
        179    29 -108.619637 -108.326100 2.935362e-01   1.000 1.83585e-02 4.09484e-02
        180    18 -108.621541 -108.327849 2.936917e-01   1.000 1.76193e-02 4.09117e-02
        181    18 -108.623529 -108.329107 2.944217e-01   1.000 1.64012e-02 4.08960e-02
        182    18 -108.625549 -108.331682 2.938678e-01   1.000 1.50897e-02 4.08611e-02
        183    18 -108.627576 -108.332842 2.947335e-01   1.000 1.39879e-02 4.08290e-02
        184    18 -108.629608 -108.332984 2.966231e-01   1.000 1.33652e-02 4.07927e-02
        185    16 -108.631637 -108.331560 3.000775e-01   1.000 1.33926e-02 4.07548e-02
        186    18 -108.633610 -108.331733 3.018773e-01   1.000 1.40724e-02 4.07206e-02
        187    15 -108.635539 -108.328733 3.068058e-01   1.000 1.51543e-02 4.06971e-02
        188    18 -108.637432 -108.327551 3.098809e-01   1.000 1.64422e-02 4.06876e-02
        189     8 -108.639407 -108.323476 3.159316e-01   1.000 1.76796e-02 4.06945e-02
        190    18 -108.641065 -108.323282 3.177834e-01   1.000 1.88299e-02 4.07130e-02
        191     8 -108.642923 -108.317740 3.251828e-01   1.000 1.97352e-02 4.07398e-02
        192    18 -108.644051 -108.318716 3.253344e-01   1.000 2.09595e-02 4.06991e-02
        193    18 -108.645054 -108.316945 3.281087e-01   1.000 2.52084e-02 4.05038e-02
        194    18 -108.645897 -108.321590 3.243070e-01   1.000 3.07565e-02 4.01470e-02
        195    24 -108.647058 -108.324281 3.227772e-01   1.000 3.61035e-02 3.97584e-02
        196    18 -108.648282 -108.328755 3.195269e-01   1.000 3.98349e-02 3.94134e-02
        197    18 -108.649305 -108.340107 3.091975e-01   1.000 4.19239e-02 3.91766e-02
        198    21 -108.650730 -108.346870 3.038596e-01   1.000 4.25030e-02 3.90769e-02
        199    14 -108.652572 -108.348382 3.041902e-01   1.000 4.09182e-02 3.91127e-02
        200    18 -108.653829 -108.360262 2.935668e-01   1.000 3.78338e-02 3.92455e-02
        201    21 -108.655724 -108.360537 2.951875e-01   1.000 3.38694e-02 3.94499e-02
        202    18 -108.656980 -108.363810 2.931699e-01   1.000 2.58111e-02 3.96398e-02
        203     8 -108.657951 -108.362031 2.959194e-01   1.000 1.59644e-02 3.98092e-02
        204    24 -108.659497 -108.368342 2.911544e-01   1.000 1.01435e-02 3.98621e-02
        205    18 -108.661586 -108.360769 3.008167e-01   1.000 6.58552e-03 3.98548e-02
        206    18 -108.663651 -108.357816 3.058351e-01   1.000 8.44829e-03 3.97782e-02
        207    18 -108.665635 -108.353840 3.117944e-01   1.000 1.27730e-02 3.96500e-02
        208    18 -108.667561 -108.348865 3.186959e-01   1.000 1.68776e-02 3.94964e-02
        209    18 -108.669437 -108.344374 3.250634e-01   1.000 2.00716e-02 3.93389e-02
        210    18 -108.671243 -108.340202 3.310417e-01   1.000 2.21394e-02 3.92031e-02
        211    18 -108.672946 -108.336431 3.365153e-01   1.000 2.30279e-02 3.91032e-02
        212    18 -108.674557 -108.334914 3.396432e-01   1.000 2.27743e-02 3.90417e-02
        213    18 -108.676006 -108.334461 3.415450e-01   1.000 2.15396e-02 3.90098e-02
        214    18 -108.677307 -108.335115 3.421923e-01   1.000 1.95888e-02 3.89953e-02
        215    18 -108.678575 -108.337551 3.410235e-01   1.000 1.71615e-02 3.89843e-02
        216    18 -108.679814 -108.340746 3.390687e-01   1.000 1.45148e-02 3.89670e-02
        217    18 -108.681045 -108.344746 3.362994e-01   1.000 1.19613e-02 3.89357e-02
        218    21 -108.682406 -108.347432 3.349735e-01   1.000 9.91796e-03 3.88898e-02
        219    15 -108.683566 -108.353631 3.299349e-01   1.000 8.79018e-03 3.88243e-02
        220    18 -108.684934 -108.356628 3.283056e-01   1.000 8.88516e-03 3.87499e-02
        221    18 -108.686400 -108.359017 3.273827e-01   1.000 9.92609e-03 3.86748e-02
        222    18 -108.687466 -108.361552 3.259139e-01   1.000 9.70070e-03 3.86125e-02
        223    18 -108.688682 -108.363364 3.253188e-01   1.000 9.88781e-03 3.85697e-02
        224    18 -108.690131 -108.364398 3.257330e-01   1.000 1.00554e-02 3.85292e-02
        225    18 -108.691621 -108.365713 3.259081e-01   1.000 1.01017e-02 3.84666e-02
        226    18 -108.693122 -108.368344 3.247783e-01   1.000 1.01156e-02 3.83416e-02
        227    18 -108.694673 -108.371026 3.236470e-01   1.000 1.02265e-02 3.82001e-02
        228    18 -108.696242 -108.374186 3.220560e-01   1.000 1.07112e-02 3.80376e-02
        229    24 -108.697725 -108.380216 3.175086e-01   1.000 1.18022e-02 3.78213e-02
        230    18 -108.699320 -108.384944 3.143756e-01   1.000 1.34825e-02 3.75960e-02
        231    18 -108.700805 -108.390707 3.100980e-01   1.000 1.55046e-02 3.73841e-02
        232    23 -108.701972 -108.395886 3.060858e-01   1.000 1.75366e-02 3.71922e-02
        233    18 -108.703571 -108.396345 3.072257e-01   1.000 1.91598e-02 3.70751e-02
        234    18 -108.704941 -108.400103 3.048376e-01   1.000 2.04345e-02 3.69257e-02
        235    18 -108.706195 -108.401671 3.045241e-01   1.000 2.11288e-02 3.68274e-02
        236    18 -108.707405 -108.401470 3.059350e-01   1.000 2.11659e-02 3.67628e-02
        237    18 -108.708587 -108.399361 3.092265e-01   1.000 2.05340e-02 3.67534e-02
        238    18 -108.709131 -108.397765 3.113656e-01   1.000 1.45227e-02 3.67270e-02
        239    21 -108.709676 -108.397990 3.116854e-01   1.000 1.31664e-02 3.66702e-02
        240    18 -108.711040 -108.393920 3.171204e-01   1.000 1.32198e-02 3.66589e-02
        241    20 -108.712197 -108.395358 3.168387e-01   1.000 1.34664e-02 3.65717e-02
        242    18 -108.713504 -108.392016 3.214875e-01   1.000 1.36221e-02 3.65418e-02
        243    18 -108.714735 -108.390599 3.241352e-01   1.000 1.37064e-02 3.65202e-02
        244    18 -108.715989 -108.389224 3.267645e-01   1.000 1.36626e-02 3.65109e-02
        245    18 -108.717159 -108.388441 3.287177e-01   1.000 1.35799e-02 3.65047e-02
        246    18 -108.718217 -108.388484 3.297332e-01   1.000 1.39199e-02 3.65009e-02
        247    18 -108.719290 -108.389358 3.299320e-01   1.000 1.46239e-02 3.64927e-02
        248    18 -108.720380 -108.391094 3.292857e-01   1.000 1.54734e-02 3.64801e-02
        249    24 -108.721428 -108.395011 3.264169e-01   1.000 1.62509e-02 3.64745e-02
        250    18 -108.722765 -108.394606 3.281594e-01   1.000 1.65570e-02 3.65316e-02
        251    18 -108.723933 -108.401101 3.228321e-01   1.000 1.65206e-02 3.64829e-02
        252    24 -108.725251 -108.403850 3.214016e-01   1.000 1.61558e-02 3.64975e-02
        253    16 -108.726638 -108.406023 3.206150e-01   1.000 1.52911e-02 3.65126e-02
        254    24 -108.727948 -108.409286 3.186629e-01   1.000 1.38939e-02 3.65559e-02
        255    18 -108.729377 -108.410610 3.187677e-01   1.000 1.22749e-02 3.65796e-02
        256    23 -108.730889 -108.412639 3.182505e-01   1.000 1.09579e-02 3.64760e-02
        257    18 -108.732301 -108.414680 3.176213e-01   1.000 9.80885e-03 3.64438e-02
        258    24 -108.733827 -108.412236 3.215919e-01   1.000 9.29417e-03 3.64047e-02
        259    16 -108.735220 -108.413505 3.217155e-01   1.000 9.13897e-03 3.63654e-02
        260    26 -108.736648 -108.409086 3.275620e-01   1.000 9.49490e-03 3.63265e-02
        261    18 -108.737970 -108.409479 3.284900e-01   1.000 1.00815e-02 3.62755e-02
        262    26 -108.739353 -108.405038 3.343157e-01   1.000 1.07475e-02 3.62404e-02
        263    18 -108.740624 -108.404151 3.364733e-01   1.000 1.10961e-02 3.62163e-02
        264    18 -108.742002 -108.400598 3.414036e-01   1.000 1.11451e-02 3.62044e-02
        265    29 -108.743283 -108.398538 3.447448e-01   1.000 1.08908e-02 3.62052e-02
        266    18 -108.744515 -108.397378 3.471368e-01   1.000 1.02251e-02 3.62127e-02
        267    18 -108.745834 -108.395177 3.506570e-01   1.000 9.31151e-03 3.62247e-02
        268    29 -108.747102 -108.393983 3.531194e-01   1.000 8.31004e-03 3.62358e-02
        269    18 -108.748360 -108.394414 3.539459e-01   1.000 7.30481e-03 3.62385e-02
        270    25 -108.749622 -108.394757 3.548649e-01   1.000 6.61229e-03 3.62305e-02
        271    18 -108.750918 -108.395855 3.550626e-01   1.000 6.40907e-03 3.62066e-02
        272    26 -108.752151 -108.397237 3.549143e-01   1.000 6.77202e-03 3.61706e-02
        273    16 -108.753520 -108.398208 3.553123e-01   1.000 7.51776e-03 3.61261e-02
        274    25 -108.754782 -108.400975 3.538072e-01   1.000 8.49399e-03 3.60781e-02
        275    18 -108.756179 -108.401145 3.550345e-01   1.000 9.47015e-03 3.60312e-02
        276    25 -108.757485 -108.402404 3.550805e-01   1.000 1.04227e-02 3.59895e-02
        277    16 -108.758392 -108.402528 3.558635e-01   1.000 8.41370e-03 3.59627e-02
        278    26 -108.759439 -108.402995 3.564446e-01   1.000 8.12044e-03 3.59389e-02
        279    18 -108.760792 -108.402071 3.587205e-01   1.000 8.10985e-03 3.59263e-02
        280    18 -108.762147 -108.401411 3.607358e-01   1.000 8.14617e-03 3.59228e-02
        281    24 -108.763508 -108.400051 3.634573e-01   1.000 8.26236e-03 3.59267e-02
        282    16 -108.764876 -108.398010 3.668667e-01   1.000 8.50770e-03 3.59343e-02
        283    16 -108.766277 -108.395568 3.707083e-01   1.000 8.87427e-03 3.59460e-02
        284    18 -108.767670 -108.393236 3.744339e-01   1.000 9.30585e-03 3.59593e-02
        285    16 -108.769068 -108.391447 3.776215e-01   1.000 9.71059e-03 3.59737e-02
        286    18 -108.770459 -108.388948 3.815109e-01   1.000 1.00511e-02 3.59882e-02
        287    18 -108.771841 -108.387011 3.848293e-01   1.000 1.02779e-02 3.60021e-02
        288    18 -108.773206 -108.385553 3.876530e-01   1.000 1.03627e-02 3.60150e-02
        289    18 -108.774552 -108.384522 3.900298e-01   1.000 1.02967e-02 3.60264e-02
        290    18 -108.775877 -108.384022 3.918545e-01   1.000 1.00804e-02 3.60359e-02
        291    18 -108.777176 -108.383912 3.932649e-01   1.000 9.72717e-03 3.60431e-02
        292    18 -108.778452 -108.384259 3.941927e-01   1.000 9.25793e-03 3.60478e-02
        293    24 -108.779683 -108.384370 3.953132e-01   1.000 8.75839e-03 3.60503e-02
        294    16 -108.780894 -108.386128 3.947667e-01   1.000 8.11212e-03 3.60477e-02
        295    24 -108.782131 -108.385897 3.962341e-01   1.000 7.55991e-03 3.60419e-02
        296    18 -108.783308 -108.387877 3.954312e-01   1.000 6.96279e-03 3.60322e-02
        297    24 -108.784504 -108.388309 3.961957e-01   1.000 6.55356e-03 3.60187e-02
        298    18 -108.785664 -108.389869 3.957951e-01   1.000 6.17319e-03 3.60016e-02
        299    24 -108.786887 -108.389733 3.971540e-01   1.000 6.00199e-03 3.59823e-02
        300    18 -108.788027 -108.391406 3.966213e-01   1.000 5.90373e-03 3.59555e-02
        301    26 -108.789279 -108.391604 3.976741e-01   1.000 6.13616e-03 3.59074e-02
        302    18 -108.790444 -108.394439 3.960053e-01   1.000 6.51133e-03 3.58293e-02
        303    18 -108.791673 -108.396973 3.946997e-01   1.000 7.03374e-03 3.57374e-02
        304    24 -108.792891 -108.400949 3.919419e-01   1.000 7.69023e-03 3.56464e-02
        305    18 -108.794253 -108.404095 3.901571e-01   1.000 8.37725e-03 3.55686e-02
        306    18 -108.795585 -108.408456 3.871291e-01   1.000 9.11815e-03 3.55087e-02
        307    18 -108.796901 -108.412154 3.847474e-01   1.000 9.86035e-03 3.54609e-02
        308    18 -108.798222 -108.414849 3.833729e-01   1.000 1.05305e-02 3.54212e-02
        309    18 -108.799536 -108.416558 3.829787e-01   1.000 1.10536e-02 3.53814e-02
        310    18 -108.800833 -108.417447 3.833856e-01   1.000 1.13744e-02 3.53353e-02
        311    18 -108.802101 -108.417588 3.845128e-01   1.000 1.14697e-02 3.52803e-02
        312    24 -108.803281 -108.417047 3.862339e-01   1.000 1.13620e-02 3.52196e-02
        313    18 -108.804553 -108.416229 3.883243e-01   1.000 1.10894e-02 3.51524e-02
        314    18 -108.805722 -108.416118 3.896033e-01   1.000 1.06569e-02 3.50903e-02
        315    24 -108.806765 -108.416753 3.900114e-01   1.000 1.00867e-02 3.50633e-02
        316    18 -108.807932 -108.416889 3.910435e-01   1.000 9.66440e-03 3.49936e-02
        317    18 -108.808971 -108.418653 3.903177e-01   1.000 9.29151e-03 3.49658e-02
        318    18 -108.809990 -108.419461 3.905287e-01   1.000 8.95448e-03 3.49528e-02
        319    18 -108.811043 -108.420018 3.910247e-01   1.000 8.61033e-03 3.49534e-02
        320    18 -108.812123 -108.420724 3.913988e-01   1.000 8.21476e-03 3.49659e-02
        321    18 -108.813234 -108.421441 3.917932e-01   1.000 7.75558e-03 3.49879e-02
        322    18 -108.814376 -108.422114 3.922616e-01   1.000 7.25715e-03 3.50166e-02
        323    21 -108.815512 -108.423059 3.924532e-01   1.000 6.77086e-03 3.50489e-02
        324    21 -108.816765 -108.421457 3.953079e-01   1.000 6.37402e-03 3.50813e-02
        325    18 -108.818029 -108.421916 3.961121e-01   1.000 6.12062e-03 3.51120e-02
        326    24 -108.819306 -108.421776 3.975296e-01   1.000 6.00329e-03 3.51400e-02
        327    18 -108.820617 -108.421535 3.990823e-01   1.000 6.05875e-03 3.51621e-02
        328    24 -108.821972 -108.420389 4.015837e-01   1.000 6.18712e-03 3.51790e-02
        329    18 -108.823274 -108.420802 4.024726e-01   1.000 6.37172e-03 3.51894e-02
        330    25 -108.824626 -108.419863 4.047622e-01   1.000 6.50548e-03 3.51930e-02
        331    18 -108.825927 -108.420543 4.053840e-01   1.000 6.61325e-03 3.51898e-02
        332    18 -108.827258 -108.419985 4.072725e-01   1.000 6.67004e-03 3.51797e-02
        333    18 -108.828568 -108.419894 4.086749e-01   1.000 6.69069e-03 3.51622e-02
        334    18 -108.829833 -108.420129 4.097046e-01   1.000 6.70364e-03 3.51366e-02
        335    18 -108.831054 -108.420776 4.102782e-01   1.000 6.74315e-03 3.51015e-02
        336    18 -108.832061 -108.421134 4.109271e-01   1.000 7.02504e-03 3.50599e-02
        337    24 -108.833078 -108.421518 4.115599e-01   1.000 7.83465e-03 3.50128e-02
        338    16 -108.834051 -108.423019 4.110320e-01   1.000 8.68276e-03 3.49646e-02
        339    21 -108.835099 -108.422837 4.122617e-01   1.000 9.48434e-03 3.49215e-02
        340    18 -108.836105 -108.423980 4.121245e-01   1.000 9.98903e-03 3.48849e-02
        341    24 -108.837108 -108.423693 4.134146e-01   1.000 1.03163e-02 3.48571e-02
        342    18 -108.837825 -108.424588 4.132367e-01   1.000 9.52851e-03 3.48376e-02
        343    18 -108.838762 -108.424158 4.146040e-01   1.000 9.60183e-03 3.48164e-02
        344    24 -108.839777 -108.424266 4.155113e-01   1.000 9.69124e-03 3.48043e-02
        345    18 -108.840897 -108.424272 4.166249e-01   1.000 9.59281e-03 3.48003e-02
        346    18 -108.842079 -108.423373 4.187057e-01   1.000 9.36303e-03 3.48049e-02
        347    18 -108.843307 -108.422415 4.208923e-01   1.000 9.01284e-03 3.48156e-02
        348    18 -108.844573 -108.421574 4.229982e-01   1.000 8.57007e-03 3.48339e-02
        349    18 -108.845876 -108.420202 4.256737e-01   1.000 8.08583e-03 3.48531e-02
        350    18 -108.847149 -108.418985 4.281631e-01   1.000 7.69648e-03 3.48735e-02
        351    18 -108.848417 -108.417450 4.309669e-01   1.000 7.58840e-03 3.48903e-02
        352    24 -108.849674 -108.416916 4.327575e-01   1.000 7.82904e-03 3.49013e-02
        353    18 -108.851007 -108.414936 4.360715e-01   1.000 8.32111e-03 3.49040e-02
        354    18 -108.852313 -108.414491 4.378217e-01   1.000 8.95009e-03 3.48997e-02
        355    23 -108.853563 -108.414993 4.385705e-01   1.000 9.69015e-03 3.48887e-02
        356    18 -108.854936 -108.412958 4.419786e-01   1.000 1.03076e-02 3.48711e-02
        357    18 -108.856237 -108.413677 4.425601e-01   1.000 1.07751e-02 3.48501e-02
        358    23 -108.857514 -108.415010 4.425041e-01   1.000 1.11963e-02 3.48274e-02
        359    18 -108.858856 -108.413339 4.455171e-01   1.000 1.13665e-02 3.47959e-02
        360    18 -108.860116 -108.415142 4.449735e-01   1.000 1.14426e-02 3.47391e-02
        361    18 -108.861331 -108.417264 4.440672e-01   1.000 1.14732e-02 3.46329e-02
        362    18 -108.862572 -108.419524 4.430488e-01   1.000 1.14069e-02 3.45141e-02
        363    18 -108.863799 -108.422547 4.412516e-01   1.000 1.11836e-02 3.44123e-02
        364    18 -108.864993 -108.425720 4.392732e-01   1.000 1.07581e-02 3.43484e-02
        365    18 -108.866152 -108.428621 4.375313e-01   1.000 1.01156e-02 3.43302e-02
        366    18 -108.867047 -108.431211 4.358359e-01   1.000 8.03669e-03 3.43551e-02
        367    24 -108.867896 -108.434134 4.337622e-01   1.000 6.72885e-03 3.44059e-02
        368    18 -108.869179 -108.434995 4.341842e-01   1.000 6.03864e-03 3.44627e-02
        369    18 -108.870342 -108.437534 4.328083e-01   1.000 5.35334e-03 3.45151e-02
        370    23 -108.871535 -108.438166 4.333691e-01   1.000 4.75082e-03 3.45477e-02
        371    16 -108.872760 -108.437350 4.354095e-01   1.000 4.31490e-03 3.45534e-02
        372    18 -108.873977 -108.436799 4.371782e-01   1.000 4.09766e-03 3.45335e-02
        373    18 -108.875202 -108.435522 4.396798e-01   1.000 4.08101e-03 3.44943e-02
        374    18 -108.876420 -108.434120 4.423000e-01   1.000 4.19569e-03 3.44456e-02
        375    18 -108.877621 -108.432458 4.451633e-01   1.000 4.35990e-03 3.43977e-02
        376    18 -108.878846 -108.430779 4.480671e-01   1.000 4.51934e-03 3.43585e-02
        377    18 -108.880092 -108.429232 4.508598e-01   1.000 4.62792e-03 3.43323e-02
        378    18 -108.881357 -108.427922 4.534348e-01   1.000 4.69384e-03 3.43187e-02
        379    18 -108.882638 -108.426892 4.557455e-01   1.000 4.76127e-03 3.43139e-02
        380    18 -108.883931 -108.426042 4.578883e-01   1.000 4.88845e-03 3.43121e-02
        381    18 -108.885170 -108.425633 4.595379e-01   1.000 4.96636e-03 3.43074e-02
        382    21 -108.886289 -108.425561 4.607280e-01   1.000 4.94428e-03 3.42968e-02
        383    21 -108.887516 -108.425989 4.615271e-01   1.000 5.03054e-03 3.42781e-02
        384    21 -108.888694 -108.426369 4.623247e-01   1.000 5.10365e-03 3.42536e-02
        385    24 -108.889906 -108.426741 4.631650e-01   1.000 5.16025e-03 3.42258e-02
        386    18 -108.891130 -108.427788 4.633420e-01   1.000 5.12350e-03 3.41982e-02
        387    24 -108.892263 -108.429264 4.629986e-01   1.000 5.06247e-03 3.41731e-02
        388    18 -108.893489 -108.429651 4.638375e-01   1.000 4.93302e-03 3.41516e-02
        389    24 -108.894620 -108.431291 4.633285e-01   1.000 4.81911e-03 3.41332e-02
        390    18 -108.895813 -108.431940 4.638737e-01   1.000 4.71476e-03 3.41153e-02
        391    29 -108.896935 -108.434246 4.626899e-01   1.000 4.69709e-03 3.40962e-02
        392    18 -108.898117 -108.435224 4.628934e-01   1.000 4.76604e-03 3.40752e-02
        393    29 -108.899222 -108.437705 4.615167e-01   1.000 4.96043e-03 3.40512e-02
        394    18 -108.900393 -108.438436 4.619576e-01   1.000 5.27712e-03 3.40244e-02
        395    29 -108.901478 -108.440880 4.605978e-01   1.000 5.70542e-03 3.39957e-02
        396    18 -108.902643 -108.440631 4.620119e-01   1.000 6.21297e-03 3.39650e-02
        397    29 -108.903711 -108.442428 4.612832e-01   1.000 6.76797e-03 3.39317e-02
        398    18 -108.904864 -108.441100 4.637639e-01   1.000 7.26484e-03 3.38971e-02
        399    21 -108.905905 -108.442813 4.630928e-01   1.000 7.64123e-03 3.38764e-02
        400    21 -108.907012 -108.441944 4.650675e-01   1.000 8.17991e-03 3.38130e-02
        401    21 -108.908093 -108.443287 4.648064e-01   1.000 8.60642e-03 3.37587e-02
        402    18 -108.909196 -108.442174 4.670222e-01   1.000 8.94942e-03 3.36952e-02
        403    29 -108.910274 -108.442615 4.676591e-01   1.000 9.22902e-03 3.36217e-02
        404    18 -108.911386 -108.442058 4.693277e-01   1.000 9.11775e-03 3.35357e-02
        405    27 -108.911984 -108.445233 4.667515e-01   1.000 7.64189e-03 3.34482e-02
        406    18 -108.913117 -108.446286 4.668311e-01   1.000 7.94673e-03 3.33164e-02
        407    29 -108.914097 -108.451660 4.624370e-01   1.000 8.29030e-03 3.31921e-02
        408    18 -108.915210 -108.453368 4.618419e-01   1.000 8.59178e-03 3.30718e-02
        409    20 -108.916172 -108.459492 4.566796e-01   1.000 8.87214e-03 3.29593e-02
        410    18 -108.917223 -108.462005 4.552178e-01   1.000 9.15665e-03 3.28604e-02
        411    29 -108.918174 -108.467943 4.502310e-01   1.000 9.43950e-03 3.27816e-02
        412    18 -108.919324 -108.469755 4.495692e-01   1.000 9.65743e-03 3.27270e-02
        413    20 -108.920316 -108.475949 4.443670e-01   1.000 9.85231e-03 3.26892e-02
        414    18 -108.921370 -108.476883 4.444867e-01   1.000 1.00614e-02 3.26587e-02
        415    29 -108.922346 -108.480221 4.421257e-01   1.000 1.02837e-02 3.26327e-02
        416    18 -108.923477 -108.478846 4.446311e-01   1.000 1.04242e-02 3.26090e-02
        417    18 -108.924530 -108.479426 4.451041e-01   1.000 1.04396e-02 3.25940e-02
        418    24 -108.925509 -108.480315 4.451943e-01   1.000 1.03485e-02 3.25912e-02
        419    18 -108.926270 -108.477833 4.484369e-01   1.000 8.92095e-03 3.26024e-02
        420    18 -108.927294 -108.478339 4.489553e-01   1.000 8.74060e-03 3.25909e-02
        421    29 -108.928313 -108.478902 4.494111e-01   1.000 8.59823e-03 3.25888e-02
        422    18 -108.929358 -108.477409 4.519491e-01   1.000 8.36262e-03 3.25827e-02
        423    20 -108.930303 -108.479825 4.504776e-01   1.000 8.01684e-03 3.26079e-02
        424    29 -108.931397 -108.480047 4.513497e-01   1.000 7.79476e-03 3.25793e-02
        425    20 -108.932499 -108.482177 4.503217e-01   1.000 7.46996e-03 3.25781e-02
        426    29 -108.933583 -108.483619 4.499632e-01   1.000 7.22924e-03 3.25751e-02
        427    20 -108.934678 -108.485213 4.494651e-01   1.000 6.94564e-03 3.25669e-02
        428    29 -108.935740 -108.486498 4.492412e-01   1.000 6.78784e-03 3.25502e-02
        429    18 -108.936868 -108.486455 4.504125e-01   1.000 6.55579e-03 3.25287e-02
        430    29 -108.937886 -108.489988 4.478980e-01   1.000 6.48121e-03 3.24848e-02
        431    18 -108.939008 -108.489365 4.496426e-01   1.000 6.34370e-03 3.24327e-02
        432    29 -108.940016 -108.492267 4.477493e-01   1.000 6.51558e-03 3.22980e-02
        433    25 -108.941075 -108.494791 4.462845e-01   1.000 7.46381e-03 3.18982e-02
        434    32 -108.942215 -108.501813 4.404021e-01   1.000 9.24541e-03 3.12532e-02
        435    23 -108.943239 -108.518285 4.249535e-01   1.000 1.00642e-02 3.07412e-02
        436    32 -108.944462 -108.528658 4.158040e-01   1.000 1.07123e-02 3.04618e-02
        437    24 -108.945453 -108.538753 4.067000e-01   1.000 1.17156e-02 3.01130e-02
        438    21 -108.946384 -108.545099 4.012857e-01   1.000 1.27006e-02 2.97043e-02
        439    21 -108.947288 -108.551625 3.956622e-01   1.000 1.32642e-02 2.93345e-02
        440    26 -108.948158 -108.559439 3.887192e-01   1.000 1.35834e-02 2.89871e-02
        441    26 -108.948898 -108.567089 3.818092e-01   1.000 1.35404e-02 2.87274e-02
        442    26 -108.949592 -108.572980 3.766119e-01   1.000 1.32008e-02 2.85694e-02
        443    25 -108.950235 -108.581430 3.688059e-01   1.000 1.27331e-02 2.84474e-02
        444    26 -108.950907 -108.587786 3.631201e-01   1.000 1.21073e-02 2.84141e-02
        445    25 -108.951603 -108.596008 3.555952e-01   1.000 1.14363e-02 2.83993e-02
        446    26 -108.952227 -108.601733 3.504943e-01   1.000 1.05981e-02 2.84494e-02
        447    18 -108.953010 -108.606769 3.462400e-01   1.000 9.69282e-03 2.85063e-02
        448    29 -108.953598 -108.611600 3.419984e-01   1.000 8.94753e-03 2.85229e-02
        449    18 -108.954332 -108.612866 3.414668e-01   1.000 8.22891e-03 2.85425e-02
        450    18 -108.954966 -108.614444 3.405222e-01   1.000 7.58226e-03 2.85492e-02
        451    24 -108.955652 -108.615101 3.405507e-01   1.000 7.05854e-03 2.85263e-02
        452    14 -108.956394 -108.613247 3.431473e-01   1.000 6.38422e-03 2.85144e-02
        453    18 -108.957044 -108.612375 3.446689e-01   1.000 5.56116e-03 2.84685e-02
        454    29 -108.957671 -108.612383 3.452878e-01   1.000 5.23214e-03 2.83433e-02
        455    18 -108.958374 -108.610697 3.476767e-01   1.000 5.12125e-03 2.82220e-02
        456    18 -108.959050 -108.609018 3.500324e-01   1.000 5.10749e-03 2.81138e-02
        457    18 -108.959741 -108.606936 3.528050e-01   1.000 5.04571e-03 2.80214e-02
        458    24 -108.960424 -108.606487 3.539370e-01   1.000 5.08431e-03 2.79119e-02
        459    18 -108.961182 -108.604176 3.570055e-01   1.000 5.10571e-03 2.78234e-02
        460    29 -108.961940 -108.602759 3.591805e-01   1.000 5.13286e-03 2.77526e-02
        461    18 -108.962682 -108.600513 3.621688e-01   1.000 5.11930e-03 2.76963e-02
        462    29 -108.963471 -108.598914 3.645571e-01   1.000 5.14290e-03 2.76515e-02
        463    18 -108.964226 -108.597159 3.670670e-01   1.000 5.14218e-03 2.76156e-02
        464    29 -108.965012 -108.596174 3.688382e-01   1.000 5.19231e-03 2.75862e-02
        465    18 -108.965775 -108.594992 3.707830e-01   1.000 5.20453e-03 2.75659e-02
        466    26 -108.966544 -108.594805 3.717393e-01   1.000 5.31870e-03 2.75413e-02
        467    18 -108.967314 -108.594622 3.726913e-01   1.000 5.40006e-03 2.75176e-02
        468    25 -108.968019 -108.594769 3.732502e-01   1.000 5.47188e-03 2.74909e-02
        469    18 -108.968765 -108.594755 3.740096e-01   1.000 5.56270e-03 2.74602e-02
        470    21 -108.969509 -108.595652 3.738578e-01   1.000 5.70715e-03 2.74272e-02
        471    18 -108.970244 -108.595771 3.744726e-01   1.000 5.80028e-03 2.73884e-02
        472    21 -108.970994 -108.596779 3.742150e-01   1.000 5.92755e-03 2.73494e-02
        473    18 -108.971713 -108.597538 3.741746e-01   1.000 5.94898e-03 2.73105e-02
        474    18 -108.972466 -108.598164 3.743023e-01   1.000 5.95185e-03 2.72719e-02
        475    25 -108.973193 -108.599394 3.737996e-01   1.000 5.94257e-03 2.72364e-02
        476    18 -108.973936 -108.599640 3.742959e-01   1.000 5.81071e-03 2.72030e-02
        477    18 -108.974673 -108.600811 3.738616e-01   1.000 5.64465e-03 2.71727e-02
        478    21 -108.975399 -108.601984 3.734154e-01   1.000 5.48649e-03 2.71447e-02
        479    16 -108.976173 -108.602300 3.738738e-01   1.000 5.24511e-03 2.71186e-02
        480    21 -108.976875 -108.603928 3.729465e-01   1.000 5.04506e-03 2.70931e-02
        481    18 -108.977621 -108.604068 3.735529e-01   1.000 4.80750e-03 2.70679e-02
        482    21 -108.978314 -108.606359 3.719550e-01   1.000 4.57043e-03 2.70423e-02
        483    21 -108.979049 -108.606820 3.722290e-01   1.000 4.34167e-03 2.70150e-02
        484    18 -108.979773 -108.607819 3.719538e-01   1.000 4.12688e-03 2.69861e-02
        485    25 -108.980485 -108.609240 3.712446e-01   1.000 3.96080e-03 2.69546e-02
        486    18 -108.981229 -108.609752 3.714764e-01   1.000 3.78785e-03 2.69211e-02
        487    25 -108.981909 -108.611587 3.703223e-01   1.000 3.65698e-03 2.68855e-02
        488    18 -108.982642 -108.611643 3.709994e-01   1.000 3.52329e-03 2.68481e-02
        489    29 -108.983327 -108.612880 3.704466e-01   1.000 3.42810e-03 2.68095e-02
        490    18 -108.984007 -108.612901 3.711056e-01   1.000 3.03223e-03 2.67706e-02
        491    24 -108.984662 -108.613909 3.707525e-01   1.000 2.96629e-03 2.67308e-02
        492    21 -108.985386 -108.614280 3.711053e-01   1.000 2.90769e-03 2.66913e-02
        493    30 -108.986023 -108.614713 3.713101e-01   1.000 2.63077e-03 2.66523e-02
        494    18 -108.986752 -108.614708 3.720441e-01   1.000 2.61999e-03 2.66120e-02
        495    24 -108.987426 -108.615808 3.716175e-01   1.000 2.63165e-03 2.65705e-02
        496    29 -108.988112 -108.616183 3.719293e-01   1.000 2.67705e-03 2.65230e-02
        497    18 -108.988835 -108.616308 3.725275e-01   1.000 4.74305e-03 2.58397e-02
        498    24 -108.989490 -108.629593 3.598967e-01   1.000 9.57434e-03 2.40291e-02
        499    32 -108.990211 -108.657762 3.324489e-01   1.000 1.20493e-02 2.18417e-02

        ==> Orbital Optimization <==

            Orbital Optimization converged in  14 iterations 
            Total energy change: -4.386635e-02
            Final gradient norm: 3.394057e-06

        500    31 -109.034777 -108.779209 2.555678e-01   1.000 1.19554e-02 2.09371e-02
        501    37 -109.041349 -108.405694 6.356548e-01   1.000 3.40941e-02 6.76227e-02
        502    31 -109.047049 -108.584624 4.624245e-01   1.000 5.28337e-02 5.14456e-02
        503    33 -109.049221 -108.789729 2.594920e-01   1.000 5.79549e-02 3.88112e-02
        504    28 -109.048295 -108.951864 9.643093e-02   1.000 5.43081e-02 3.38221e-02
        505    29 -109.046595 -109.040756 5.839625e-03   1.000 4.73332e-02 3.36319e-02
        506    20 -109.044595 -109.074369 2.977397e-02   1.000 4.09030e-02 3.44091e-02
        507    29 -109.042279 -109.074451 3.217196e-02   1.000 3.66775e-02 3.42516e-02
        508    29 -109.040704 -109.037859 2.844821e-03   1.000 3.41975e-02 3.30194e-02
        509    25 -109.039335 -108.995885 4.344953e-02   1.000 3.20592e-02 3.15295e-02
        510    18 -109.038044 -108.954090 8.395450e-02   1.000 2.95265e-02 3.01473e-02
        511    18 -109.040395 -108.911632 1.287626e-01   1.000 2.31593e-02 2.90268e-02
        512    29 -109.043078 -108.885893 1.571852e-01   1.000 2.00701e-02 2.75530e-02
        513    26 -109.042122 -108.865755 1.763673e-01   1.000 1.80115e-02 2.62876e-02
        514    25 -109.041869 -108.851696 1.901728e-01   1.000 1.81427e-02 2.51036e-02
        515    18 -109.041957 -108.843521 1.984354e-01   1.000 1.84818e-02 2.41234e-02
        516    25 -109.042767 -108.835661 2.071055e-01   1.000 1.86756e-02 2.32761e-02
        517    18 -109.043642 -108.838036 2.056064e-01   1.000 1.80644e-02 2.25245e-02
        518    18 -109.044587 -108.842056 2.025309e-01   1.000 1.67812e-02 2.20196e-02
        519    18 -109.045643 -108.848575 1.970670e-01   1.000 1.56478e-02 2.16345e-02
        520    29 -109.046730 -108.858984 1.877456e-01   1.000 1.50839e-02 2.12714e-02
        521    18 -109.047956 -108.867359 1.805972e-01   1.000 1.52501e-02 2.08639e-02
        522    29 -109.048928 -108.879929 1.689986e-01   1.000 1.57666e-02 2.04390e-02
        523    18 -109.049758 -108.888687 1.610703e-01   1.000 1.64290e-02 2.00419e-02
        524    24 -109.050441 -108.899922 1.505190e-01   1.000 1.66911e-02 1.96995e-02
        525    18 -109.050871 -108.906601 1.442696e-01   1.000 1.67677e-02 1.94150e-02
        526    18 -109.051116 -108.916561 1.345546e-01   1.000 1.65782e-02 1.91696e-02
        527    18 -109.051386 -108.921962 1.294245e-01   1.000 1.63289e-02 1.89488e-02
        528    16 -109.051840 -108.928284 1.235562e-01   1.000 1.62030e-02 1.86885e-02
        529    18 -109.050520 -108.931115 1.194051e-01   1.000 1.24189e-02 1.84923e-02
        530    18 -109.050587 -108.935149 1.154380e-01   1.000 1.25838e-02 1.81853e-02
        531    16 -109.050818 -108.934661 1.161576e-01   1.000 1.27623e-02 1.79208e-02
        532    18 -109.050978 -108.934445 1.165333e-01   1.000 1.27433e-02 1.76726e-02
        533    18 -109.051163 -108.930940 1.202233e-01   1.000 1.25977e-02 1.74305e-02
        534    18 -109.051369 -108.926494 1.248746e-01   1.000 1.23475e-02 1.71767e-02
        535    18 -109.051594 -108.921007 1.305869e-01   1.000 1.20046e-02 1.69603e-02
        536    18 -109.051822 -108.916145 1.356776e-01   1.000 1.16445e-02 1.67393e-02
        537    18 -109.052064 -108.911550 1.405141e-01   1.000 1.12683e-02 1.65496e-02
        538    18 -109.052343 -108.908149 1.441933e-01   1.000 1.09630e-02 1.63842e-02
        539    18 -109.052663 -108.906901 1.457617e-01   1.000 1.08598e-02 1.61810e-02
        540    16 -109.052924 -108.905998 1.469256e-01   1.000 1.07697e-02 1.60072e-02
        541    18 -109.053273 -108.903866 1.494070e-01   1.000 1.06302e-02 1.58702e-02
        542    16 -109.053482 -108.903856 1.496260e-01   1.000 1.05729e-02 1.56756e-02
        543    18 -109.053713 -108.905411 1.483017e-01   1.000 1.04691e-02 1.55131e-02
        544    19 -109.053891 -108.906404 1.474870e-01   1.000 1.03514e-02 1.53561e-02
        545    16 -109.054147 -108.906682 1.474647e-01   1.000 1.02386e-02 1.52054e-02
        546    18 -109.054290 -108.909514 1.447758e-01   1.000 1.01261e-02 1.50598e-02
        547    16 -109.054522 -108.911561 1.429613e-01   1.000 1.00136e-02 1.49208e-02
        548    18 -109.054654 -108.913522 1.411321e-01   1.000 9.94777e-03 1.47869e-02
        549    16 -109.054863 -108.914801 1.400624e-01   1.000 9.89607e-03 1.46585e-02
        550    18 -109.054965 -108.917367 1.375982e-01   1.000 9.86873e-03 1.45341e-02
        551    16 -109.055171 -108.919187 1.359841e-01   1.000 9.83853e-03 1.44131e-02
        552    18 -109.055281 -108.920533 1.347476e-01   1.000 9.84176e-03 1.42965e-02
        553     8 -109.055497 -108.920975 1.345221e-01   1.000 9.84662e-03 1.41841e-02
        554    16 -109.055626 -108.924064 1.315625e-01   1.000 9.85307e-03 1.40709e-02
        555     8 -109.055824 -108.923368 1.324556e-01   1.000 9.89041e-03 1.39612e-02
        556    16 -109.055907 -108.925288 1.306185e-01   1.000 9.92831e-03 1.38546e-02
        557     8 -109.056060 -108.925404 1.306568e-01   1.000 9.94862e-03 1.37496e-02
        558     8 -109.056263 -108.925506 1.307575e-01   1.000 9.94199e-03 1.36470e-02
        559    16 -109.056377 -108.927198 1.291781e-01   1.000 9.91023e-03 1.35485e-02
        560     8 -109.056544 -108.926636 1.299084e-01   1.000 9.86614e-03 1.34548e-02
        561    16 -109.056692 -108.927039 1.296533e-01   1.000 9.78479e-03 1.33640e-02
        562    16 -109.056852 -108.928960 1.278923e-01   1.000 9.74694e-03 1.32609e-02
        563    18 -109.057006 -108.929143 1.278632e-01   1.000 9.76221e-03 1.31611e-02
        564    16 -109.057164 -108.929839 1.273257e-01   1.000 9.78389e-03 1.30681e-02
        565    16 -109.057314 -108.930450 1.268641e-01   1.000 9.80129e-03 1.29755e-02
        566    16 -109.057463 -108.930668 1.267954e-01   1.000 9.81858e-03 1.28835e-02
        567    16 -109.057615 -108.931479 1.261357e-01   1.000 9.80513e-03 1.27922e-02
        568    18 -109.057735 -108.931668 1.260668e-01   1.000 9.79560e-03 1.27016e-02
        569    16 -109.057880 -108.931717 1.261629e-01   1.000 9.76287e-03 1.26125e-02
        570    16 -109.058033 -108.932409 1.256245e-01   1.000 9.71761e-03 1.25245e-02
        571    16 -109.058180 -108.932904 1.252763e-01   1.000 9.64058e-03 1.24379e-02
        572    18 -109.058280 -108.934103 1.241764e-01   1.000 9.56440e-03 1.23523e-02
        573    16 -109.058418 -108.933533 1.248850e-01   1.000 9.49476e-03 1.22683e-02
        574    18 -109.058537 -108.935259 1.232775e-01   1.000 9.41333e-03 1.21852e-02
        575    16 -109.058668 -108.935773 1.228949e-01   1.000 9.33659e-03 1.21033e-02
        576    16 -109.058814 -108.936508 1.223058e-01   1.000 9.27605e-03 1.20227e-02
        577    16 -109.058951 -108.937698 1.212526e-01   1.000 9.20619e-03 1.19429e-02
        578    18 -109.059057 -108.938784 1.202739e-01   1.000 9.16425e-03 1.18638e-02
        579    16 -109.059191 -108.938999 1.201918e-01   1.000 9.13024e-03 1.17857e-02
        580    16 -109.059335 -108.940824 1.185112e-01   1.000 9.09176e-03 1.17085e-02
        581    16 -109.059463 -108.940492 1.189714e-01   1.000 9.06825e-03 1.16323e-02
        582    18 -109.059556 -108.942858 1.166975e-01   1.000 9.03378e-03 1.15562e-02
        583    16 -109.059682 -108.943113 1.165685e-01   1.000 9.00062e-03 1.14809e-02
        584    16 -109.059812 -108.944020 1.157928e-01   1.000 8.97697e-03 1.14066e-02
        585    16 -109.059932 -108.944893 1.150388e-01   1.000 8.93807e-03 1.13327e-02
        586    18 -109.060018 -108.946108 1.139096e-01   1.000 8.91219e-03 1.12591e-02
        587    16 -109.060141 -108.945753 1.143880e-01   1.000 8.89016e-03 1.11865e-02
        588    18 -109.060232 -108.947523 1.127095e-01   1.000 8.85354e-03 1.11141e-02
        589     7 -109.060379 -108.947447 1.129318e-01   1.000 8.79337e-03 1.10427e-02
        590    16 -109.060394 -108.948781 1.116130e-01   1.000 8.71882e-03 1.09750e-02
        591     8 -109.060543 -108.949127 1.114160e-01   1.000 8.66910e-03 1.09009e-02
        592    16 -109.060583 -108.950919 1.096638e-01   1.000 8.61378e-03 1.08347e-02
        593     8 -109.060713 -108.951021 1.096926e-01   1.000 8.55812e-03 1.07616e-02
        594    16 -109.060776 -108.952438 1.083379e-01   1.000 8.50774e-03 1.06928e-02
        595     8 -109.060909 -108.952548 1.083619e-01   1.000 8.45542e-03 1.06244e-02
        596    16 -109.060963 -108.954069 1.068937e-01   1.000 8.41027e-03 1.05567e-02
        597     8 -109.061086 -108.954081 1.070053e-01   1.000 8.36425e-03 1.04892e-02
        598    16 -109.061146 -108.955404 1.057423e-01   1.000 8.32490e-03 1.04225e-02
        599     8 -109.061277 -108.955431 1.058467e-01   1.000 8.28336e-03 1.03560e-02
        600    16 -109.061327 -108.956815 1.045114e-01   1.000 8.24571e-03 1.02903e-02
        601     8 -109.061449 -108.956874 1.045750e-01   1.000 8.20141e-03 1.02247e-02
        602    16 -109.061331 -108.958187 1.031443e-01   1.000 7.57536e-03 1.01760e-02
        603    16 -109.061240 -108.959891 1.013483e-01   1.000 7.23703e-03 1.01136e-02
        604    16 -109.061306 -108.961320 9.998595e-02   1.000 7.23583e-03 1.00401e-02
        605    18 -109.061307 -108.963031 9.827632e-02   1.000 7.23639e-03 9.97688e-03
        606    14 -109.061386 -108.963959 9.742650e-02   1.000 7.22930e-03 9.91312e-03
        607    16 -109.061472 -108.964749 9.672295e-02   1.000 7.22288e-03 9.84949e-03
        608    16 -109.061522 -108.965678 9.584416e-02   1.000 7.20846e-03 9.78503e-03
        609    16 -109.061568 -108.966072 9.549620e-02   1.000 7.18946e-03 9.72006e-03
        610    16 -109.061613 -108.966825 9.478846e-02   1.000 7.15437e-03 9.65484e-03
        611    16 -109.061658 -108.966788 9.486953e-02   1.000 7.11402e-03 9.59009e-03
        612    18 -109.061704 -108.966972 9.473254e-02   1.000 7.05209e-03 9.52575e-03
        613    14 -109.061692 -108.967621 9.407102e-02   1.000 6.62475e-03 9.46300e-03
        614    16 -109.061627 -108.967778 9.384929e-02   1.000 6.29361e-03 9.40175e-03
        615    16 -109.061679 -108.967963 9.371655e-02   1.000 6.15900e-03 9.33688e-03
        616    16 -109.061251 -108.968054 9.319743e-02   1.000 4.19746e-03 9.29032e-03
        617    18 -109.061107 -108.968442 9.266515e-02   1.000 3.25778e-03 9.22110e-03
        618    21 -109.061174 -108.969347 9.182748e-02   1.000 3.25309e-03 9.15599e-03
        619    18 -109.061258 -108.969652 9.160640e-02   1.000 3.24334e-03 9.09680e-03
        620    18 -109.061341 -108.970171 9.116996e-02   1.000 3.22649e-03 9.03806e-03
        621    18 -109.061424 -108.970565 9.085894e-02   1.000 3.20484e-03 8.97993e-03
        622    18 -109.061510 -108.971120 9.039015e-02   1.000 3.17828e-03 8.92232e-03
        623    18 -109.061597 -108.971651 8.994589e-02   1.000 3.15040e-03 8.86515e-03
        624    18 -109.061684 -108.972269 8.941431e-02   1.000 3.12374e-03 8.80833e-03
        625    18 -109.061767 -108.972919 8.884808e-02   1.000 3.10049e-03 8.75183e-03
        626    18 -109.061848 -108.973586 8.826254e-02   1.000 3.08155e-03 8.69567e-03
        627    18 -109.061926 -108.974259 8.766714e-02   1.000 3.06688e-03 8.63985e-03
        628    18 -109.062001 -108.974922 8.707900e-02   1.000 3.05571e-03 8.58439e-03
        629    18 -109.062073 -108.975573 8.650031e-02   1.000 3.04705e-03 8.52927e-03
        630    18 -109.062143 -108.976207 8.593591e-02   1.000 3.03968e-03 8.47447e-03
        631    18 -109.062210 -108.976827 8.538364e-02   1.000 3.03261e-03 8.41998e-03
        632    18 -109.062276 -108.977437 8.483911e-02   1.000 3.02495e-03 8.36577e-03
        633    18 -109.062341 -108.978044 8.429718e-02   1.000 3.01622e-03 8.31184e-03
        634    18 -109.062405 -108.978654 8.375115e-02   1.000 3.00617e-03 8.25817e-03
        635    18 -109.062469 -108.979271 8.319739e-02   1.000 2.99489e-03 8.20478e-03
        636    18 -109.062531 -108.979900 8.263159e-02   1.000 2.98259e-03 8.15167e-03
        637    18 -109.062593 -108.980540 8.205354e-02   1.000 2.96963e-03 8.09882e-03
        638    18 -109.062655 -108.981192 8.146255e-02   1.000 2.95633e-03 8.04626e-03
        639    18 -109.062715 -108.981854 8.086129e-02   1.000 2.94297e-03 7.99398e-03
        640    18 -109.062775 -108.982524 8.025156e-02   1.000 2.92974e-03 7.94199e-03
        641    18 -109.062834 -108.983197 7.963713e-02   1.000 2.91675e-03 7.89031e-03
        642    18 -109.062892 -108.983872 7.902045e-02   1.000 2.90402e-03 7.83892e-03
        643    18 -109.062950 -108.984545 7.840480e-02   1.000 2.89154e-03 7.78783e-03
        644    18 -109.063006 -108.985214 7.779209e-02   1.000 2.87925e-03 7.73704e-03
        645    18 -109.063062 -108.985878 7.718445e-02   1.000 2.86712e-03 7.68655e-03
        646    18 -109.063117 -108.986534 7.658294e-02   1.000 2.85510e-03 7.63635e-03
        647    18 -109.063171 -108.987183 7.598869e-02   1.000 2.84318e-03 7.58644e-03
        648    18 -109.063225 -108.987823 7.540216e-02   1.000 2.83136e-03 7.53681e-03
        649    18 -109.063278 -108.988454 7.482394e-02   1.000 2.81967e-03 7.48745e-03
        650    18 -109.063330 -108.989075 7.425429e-02   1.000 2.80812e-03 7.43837e-03
        651    18 -109.063381 -108.989687 7.369358e-02   1.000 2.79675e-03 7.38956e-03
        652    18 -109.063431 -108.990289 7.314206e-02   1.000 2.78556e-03 7.34101e-03
        653    18 -109.063481 -108.990881 7.259998e-02   1.000 2.77456e-03 7.29273e-03
        654    18 -109.063529 -108.991462 7.206750e-02   1.000 2.76374e-03 7.24470e-03
        655    18 -109.063577 -108.992033 7.154467e-02   1.000 2.75308e-03 7.19694e-03
        656    18 -109.063624 -108.992593 7.103141e-02   1.000 2.74255e-03 7.14943e-03
        657    18 -109.063671 -108.993144 7.052742e-02   1.000 2.73212e-03 7.10218e-03
        658    18 -109.063717 -108.993685 7.003227e-02   1.000 2.72175e-03 7.05518e-03
        659    18 -109.063762 -108.994217 6.954530e-02   1.000 2.71142e-03 7.00843e-03
        660    18 -109.063807 -108.994741 6.906571e-02   1.000 2.70110e-03 6.96193e-03
        661    18 -109.063851 -108.995258 6.859257e-02   1.000 2.69076e-03 6.91569e-03
        662    18 -109.063895 -108.995770 6.812490e-02   1.000 2.68040e-03 6.86970e-03
        663    17 -109.063937 -108.996280 6.765734e-02   1.000 2.66973e-03 6.82396e-03
        664    18 -109.063980 -108.996777 6.720351e-02   1.000 2.65957e-03 6.77846e-03
        665    17 -109.064022 -108.997282 6.673973e-02   1.000 2.64896e-03 6.73322e-03
        666    17 -109.064064 -108.997782 6.628227e-02   1.000 2.63835e-03 6.68823e-03
        667    17 -109.064105 -108.998274 6.583059e-02   1.000 2.62798e-03 6.64348e-03
        668    17 -109.064146 -108.998776 6.537038e-02   1.000 2.61751e-03 6.59898e-03
        669    17 -109.064187 -108.999272 6.491414e-02   1.000 2.60702e-03 6.55472e-03
        670    17 -109.064227 -108.999772 6.445524e-02   1.000 2.59653e-03 6.51070e-03
        671    17 -109.064267 -109.000272 6.399500e-02   1.000 2.58606e-03 6.46693e-03
        672    18 -109.064307 -109.000769 6.353794e-02   1.000 2.57595e-03 6.42339e-03
        673    18 -109.064345 -109.001273 6.307191e-02   1.000 2.56560e-03 6.38009e-03
        674    18 -109.064384 -109.001776 6.260796e-02   1.000 2.55533e-03 6.33703e-03
        675    18 -109.064421 -109.002279 6.214217e-02   1.000 2.54512e-03 6.29420e-03
        676    18 -109.064458 -109.002784 6.167468e-02   1.000 2.53498e-03 6.25160e-03
        677    18 -109.064495 -109.003288 6.120710e-02   1.000 2.52492e-03 6.20923e-03
        678    18 -109.064531 -109.003792 6.073893e-02   1.000 2.51495e-03 6.16709e-03
        679    18 -109.064566 -109.004295 6.027109e-02   1.000 2.50505e-03 6.12517e-03
        680    18 -109.064601 -109.004797 5.980382e-02   1.000 2.49522e-03 6.08348e-03
        681    18 -109.064636 -109.005298 5.933769e-02   1.000 2.48547e-03 6.04202e-03
        682    18 -109.064669 -109.005796 5.887311e-02   1.000 2.47578e-03 6.00078e-03
        683    18 -109.064702 -109.006292 5.841053e-02   1.000 2.46616e-03 5.95976e-03
        684    18 -109.064735 -109.006785 5.795034e-02   1.000 2.45659e-03 5.91896e-03
        685    18 -109.064767 -109.007274 5.749292e-02   1.000 2.44708e-03 5.87838e-03
        686    18 -109.064798 -109.007760 5.703861e-02   1.000 2.43761e-03 5.83801e-03
        687    18 -109.064829 -109.008242 5.658769e-02   1.000 2.42819e-03 5.79787e-03
        688    18 -109.064860 -109.008719 5.614043e-02   1.000 2.41881e-03 5.75795e-03
        689    18 -109.064889 -109.009192 5.569702e-02   1.000 2.40946e-03 5.71824e-03
        690    18 -109.064919 -109.009661 5.525763e-02   1.000 2.39805e-03 5.67898e-03
        691    18 -109.064948 -109.010184 5.476423e-02   1.000 2.39062e-03 5.64081e-03
        692    18 -109.064978 -109.010776 5.420147e-02   1.000 2.39070e-03 5.60073e-03
        693    18 -109.065005 -109.011233 5.377147e-02   1.000 2.39228e-03 5.56180e-03
        694    18 -109.065031 -109.011648 5.338271e-02   1.000 2.39287e-03 5.52310e-03
        695    18 -109.065057 -109.012047 5.301027e-02   1.000 2.39094e-03 5.48465e-03
        696    18 -109.065083 -109.012432 5.265131e-02   1.000 2.38633e-03 5.44644e-03
        697    18 -109.065110 -109.012815 5.229446e-02   1.000 2.37948e-03 5.40846e-03
        698    18 -109.065136 -109.013198 5.193799e-02   1.000 2.37120e-03 5.37069e-03
        699    18 -109.065163 -109.013584 5.157910e-02   1.000 2.36229e-03 5.33315e-03
        700    18 -109.065190 -109.013975 5.121477e-02   1.000 2.35340e-03 5.29583e-03
        701    18 -109.065217 -109.014371 5.084517e-02   1.000 2.34490e-03 5.25872e-03
        702    18 -109.065243 -109.014774 5.046893e-02   1.000 2.33693e-03 5.22183e-03
        703    18 -109.065268 -109.015181 5.008762e-02   1.000 2.32944e-03 5.18515e-03
        704    18 -109.065294 -109.015592 4.970156e-02   1.000 2.32228e-03 5.14869e-03
        705    18 -109.065318 -109.016005 4.931281e-02   1.000 2.31529e-03 5.11244e-03
        706    18 -109.065342 -109.016420 4.892231e-02   1.000 2.30834e-03 5.07639e-03
        707    18 -109.065366 -109.016834 4.853178e-02   1.000 2.30133e-03 5.04056e-03
        708    18 -109.065389 -109.017247 4.814198e-02   1.000 2.29423e-03 5.00494e-03
        709    18 -109.065412 -109.017658 4.775400e-02   1.000 2.28527e-03 4.96957e-03
        710    18 -109.065434 -109.018079 4.735458e-02   1.000 2.26995e-03 4.93516e-03
        711    18 -109.065456 -109.018565 4.689108e-02   1.000 2.25411e-03 4.89983e-03
        712    18 -109.065476 -109.019053 4.642332e-02   1.000 2.23993e-03 4.86470e-03
        713    18 -109.065495 -109.019494 4.600049e-02   1.000 2.22785e-03 4.83014e-03
        714    18 -109.065514 -109.019908 4.560537e-02   1.000 2.21824e-03 4.79576e-03
        715    18 -109.065532 -109.020302 4.522997e-02   1.000 2.21068e-03 4.76157e-03
        716    18 -109.065550 -109.020678 4.487192e-02   1.000 2.20436e-03 4.72758e-03
        717    18 -109.065568 -109.021043 4.452528e-02   1.000 2.19464e-03 4.69532e-03
        718    18 -109.065587 -109.021473 4.411382e-02   1.000 2.18727e-03 4.66031e-03
        719    18 -109.065604 -109.021873 4.373105e-02   1.000 2.17785e-03 4.62722e-03
        720    18 -109.065621 -109.022275 4.334517e-02   1.000 2.16963e-03 4.59423e-03
        721    18 -109.065637 -109.022697 4.293979e-02   1.000 2.16216e-03 4.56091e-03
        722    18 -109.065653 -109.023086 4.256685e-02   1.000 2.15497e-03 4.52812e-03
        723    18 -109.065669 -109.023453 4.221613e-02   1.000 2.14801e-03 4.49550e-03
        724    18 -109.065684 -109.023807 4.187692e-02   1.000 2.14099e-03 4.46306e-03
        725    18 -109.065700 -109.024150 4.154903e-02   1.000 2.13365e-03 4.43081e-03
        726    18 -109.065715 -109.024487 4.122808e-02   1.000 2.12584e-03 4.39873e-03
        727    18 -109.065730 -109.024817 4.091283e-02   1.000 2.11753e-03 4.36683e-03
[...]
       3442    27 -109.091518 -109.091046 4.725680e-04   8.433 1.08148e-04 7.48302e-05
       3443    35 -109.091518 -109.091032 4.865231e-04   8.433 1.08079e-04 7.47997e-05
       3444    27 -109.091518 -109.091032 4.859295e-04   8.433 1.07997e-04 7.47649e-05
       3445    35 -109.091518 -109.091020 4.986772e-04   8.433 1.07926e-04 7.47163e-05
       3446    27 -109.091518 -109.091022 4.964804e-04   8.433 1.07849e-04 7.46652e-05
       3447    35 -109.091518 -109.091011 5.076524e-04   8.433 1.07786e-04 7.46055e-05
       3448    27 -109.091518 -109.091015 5.035910e-04   8.433 1.07717e-04 7.45484e-05
       3449    35 -109.091518 -109.091005 5.128954e-04   8.433 1.07662e-04 7.44886e-05
       3450    27 -109.091518 -109.091011 5.068754e-04   8.433 1.07599e-04 7.44345e-05
       3451    35 -109.091518 -109.091004 5.141637e-04   8.433 1.07550e-04 7.43801e-05
       3452    27 -109.091518 -109.091012 5.062172e-04   8.433 1.07490e-04 7.43315e-05
       3453    35 -109.091518 -109.091007 5.116116e-04   8.433 1.07446e-04 7.42826e-05
       3454    27 -109.091518 -109.091016 5.020061e-04   8.433 1.07390e-04 7.42390e-05
       3455    35 -109.091518 -109.091013 5.058126e-04   8.433 1.07342e-04 7.41951e-05
       3456    27 -109.091518 -109.091023 4.949554e-04   8.433 1.07280e-04 7.41566e-05
       3457    35 -109.091518 -109.091021 4.976131e-04   8.433 1.07233e-04 7.41172e-05
       3458    27 -109.091518 -109.091032 4.859290e-04   8.433 1.07169e-04 7.40827e-05
       3459    35 -109.091518 -109.091030 4.879461e-04   8.433 1.07118e-04 7.40454e-05
       3460    27 -109.091518 -109.091042 4.758823e-04   8.433 1.07046e-04 7.40112e-05
       3461    35 -109.091518 -109.091040 4.776957e-04   8.433 1.06998e-04 7.39712e-05
       3462    27 -109.091518 -109.091052 4.656066e-04   8.433 1.06928e-04 7.39321e-05
       3463    35 -109.091518 -109.091051 4.675193e-04   8.433 1.06876e-04 7.38850e-05
       3464    27 -109.091518 -109.091062 4.556054e-04   8.433 1.06805e-04 7.38380e-05
       3465    35 -109.091518 -109.091060 4.578475e-04   8.433 1.06757e-04 7.37827e-05
       3466    27 -109.091518 -109.091072 4.462496e-04   8.433 1.06690e-04 7.37283e-05
       3467    35 -109.091518 -109.091069 4.488165e-04   8.433 1.06644e-04 7.36671e-05
       3468    35 -109.091518 -109.091077 4.412153e-04   8.433 1.06590e-04 7.35756e-05
       3469    29 -109.091518 -109.091086 4.317949e-04   8.433 1.06528e-04 7.35586e-05
       3470    35 -109.091518 -109.091079 4.382250e-04   8.433 1.06488e-04 7.34964e-05
       3471    27 -109.091517 -109.091092 4.259190e-04   8.433 1.06431e-04 7.34220e-05
       3472    35 -109.091517 -109.091089 4.285217e-04   8.433 1.06392e-04 7.33610e-05
       3473    27 -109.091517 -109.091099 4.181355e-04   8.433 1.06335e-04 7.33085e-05
       3474    35 -109.091517 -109.091096 4.216183e-04   8.433 1.06301e-04 7.32515e-05
       3475    27 -109.091517 -109.091106 4.111741e-04   8.433 1.06246e-04 7.31998e-05
       3476    35 -109.091517 -109.091102 4.146993e-04   8.433 1.06212e-04 7.31473e-05
       3477    27 -109.091517 -109.091112 4.045028e-04   8.433 1.06163e-04 7.31015e-05
       3478    35 -109.091517 -109.091109 4.083195e-04   8.433 1.06123e-04 7.30538e-05
       3479    33 -109.091517 -109.091115 4.020143e-04   8.433 1.06079e-04 7.29796e-05
       3480    29 -109.091517 -109.091123 3.938544e-04   8.433 1.06023e-04 7.29831e-05
       3481    35 -109.091517 -109.091115 4.015820e-04   8.433 1.05988e-04 7.29422e-05
       3482    27 -109.091516 -109.091126 3.905459e-04   8.433 1.05933e-04 7.28908e-05
       3483    35 -109.091516 -109.091122 3.946487e-04   8.433 1.05897e-04 7.28516e-05
       3484    27 -109.091516 -109.091131 3.855580e-04   8.433 1.05843e-04 7.28215e-05
       3485    35 -109.091516 -109.091125 3.908376e-04   8.433 1.05805e-04 7.27837e-05
       3486    27 -109.091516 -109.091134 3.817869e-04   8.433 1.05749e-04 7.27511e-05
       3487    35 -109.091516 -109.091129 3.872956e-04   8.433 1.05712e-04 7.27137e-05
       3488    27 -109.091516 -109.091137 3.785005e-04   8.433 1.05659e-04 7.26821e-05
       3489    35 -109.091516 -109.091131 3.844939e-04   8.433 1.05619e-04 7.26444e-05
       3490    27 -109.091516 -109.091140 3.758985e-04   8.433 1.05562e-04 7.26123e-05
       3491    35 -109.091516 -109.091133 3.822362e-04   8.433 1.05526e-04 7.25740e-05
       3492    27 -109.091516 -109.091142 3.738031e-04   8.433 1.05468e-04 7.25412e-05
       3493    35 -109.091516 -109.091135 3.804760e-04   8.433 1.05432e-04 7.25019e-05
       3494    27 -109.091515 -109.091143 3.721531e-04   8.433 1.05374e-04 7.24680e-05
       3495    35 -109.091515 -109.091136 3.791471e-04   8.433 1.05337e-04 7.24276e-05
       3496    35 -109.091515 -109.091140 3.750142e-04   8.433 1.05289e-04 7.23551e-05
       3497    35 -109.091515 -109.091140 3.749471e-04   8.433 1.05241e-04 7.23135e-05
       3498    35 -109.091515 -109.091141 3.746554e-04   8.433 1.05193e-04 7.22715e-05
       3499    35 -109.091515 -109.091140 3.746002e-04   8.433 1.05145e-04 7.22293e-05

        ==> Orbital Optimization <==

            Orbital Optimization converged in   2 iterations 
            Total energy change: -1.182593e-08
            Final gradient norm: 2.687659e-05

       3500    35 -109.091515 -109.092345 8.295289e-04   8.433 1.05097e-04 7.21867e-05
       3501    35 -109.091515 -109.091336 1.784004e-04   8.433 1.04750e-04 8.93199e-05
       3502    27 -109.091514 -109.091331 1.833491e-04   8.433 1.04523e-04 8.54691e-05
       3503    35 -109.091514 -109.091302 2.115141e-04   8.433 1.04438e-04 8.17472e-05
       3504    27 -109.091514 -109.091295 2.182637e-04   8.433 1.04450e-04 7.91857e-05
       3505    35 -109.091513 -109.091263 2.507541e-04   8.433 1.04563e-04 7.80774e-05
       3506    35 -109.091513 -109.091244 2.688292e-04   8.433 1.04734e-04 7.80574e-05
       3507    35 -109.091513 -109.091220 2.925809e-04   8.433 1.04939e-04 7.85336e-05
       3508    35 -109.091513 -109.091198 3.147909e-04   8.433 1.05146e-04 7.88477e-05
       3509    35 -109.091513 -109.091178 3.345843e-04   8.433 1.05320e-04 7.86538e-05
       3510    35 -109.091513 -109.091162 3.507044e-04   8.433 1.05433e-04 7.79077e-05
       3511    35 -109.091513 -109.091150 3.626379e-04   8.433 1.05467e-04 7.67832e-05
       3512    35 -109.091513 -109.091143 3.701446e-04   8.433 1.05416e-04 7.55472e-05
       3513    35 -109.091513 -109.091140 3.735653e-04   8.433 1.05288e-04 7.44430e-05
       3514    35 -109.091513 -109.091139 3.736137e-04   8.433 1.04853e-04 9.25097e-05
       3515    35 -109.091513 -109.091180 3.330700e-04   8.433 1.04647e-04 7.37243e-05
       3516    35 -109.091513 -109.091202 3.106681e-04   8.433 1.04442e-04 7.42986e-05
       3517    35 -109.091512 -109.091220 2.926158e-04   8.433 1.04262e-04 7.53084e-05
       3518    35 -109.091512 -109.091234 2.786155e-04   8.433 1.04124e-04 7.62606e-05
       3519    35 -109.091512 -109.091242 2.698424e-04   8.433 1.04039e-04 7.69478e-05
       3520    35 -109.091512 -109.091244 2.671051e-04   8.433 1.04011e-04 7.72850e-05
       3521    35 -109.091511 -109.091240 2.707860e-04   8.433 1.04035e-04 7.72785e-05
       3522    27 -109.091511 -109.091235 2.756374e-04   8.433 1.04093e-04 7.70223e-05
       3523    35 -109.091511 -109.091210 3.010924e-04   8.433 1.04198e-04 7.65409e-05
       3524    27 -109.091511 -109.091196 3.146650e-04   8.433 1.04301e-04 7.59334e-05
       3525    35 -109.091510 -109.091166 3.445803e-04   8.433 1.04418e-04 7.53233e-05
       3526    27 -109.091510 -109.091143 3.672548e-04   8.433 1.04508e-04 7.47523e-05
       3527    35 -109.091510 -109.091109 4.018211e-04   8.433 1.04583e-04 7.42679e-05
       3528    27 -109.091510 -109.091083 4.268846e-04   8.433 1.04616e-04 7.38910e-05
       3529    35 -109.091510 -109.091049 4.610562e-04   8.433 1.04620e-04 7.36371e-05
       3530    27 -109.091510 -109.091025 4.849799e-04   8.433 1.04577e-04 7.35009e-05
       3531    35 -109.091510 -109.090994 5.161891e-04   8.433 1.04518e-04 7.34747e-05
       3532    27 -109.091510 -109.090974 5.368156e-04   8.433 1.04417e-04 7.35433e-05
       3533    35 -109.091511 -109.090947 5.639758e-04   8.433 1.04314e-04 7.36886e-05
       3534    27 -109.091511 -109.090930 5.808743e-04   8.433 1.04183e-04 7.38889e-05
       3535    35 -109.091511 -109.090906 6.042197e-04   8.433 1.04063e-04 7.41189e-05
       3536    27 -109.091511 -109.090893 6.178476e-04   8.433 1.03929e-04 7.43551e-05
       3537    35 -109.091511 -109.090873 6.380765e-04   8.433 1.03813e-04 7.45736e-05
       3538    27 -109.091511 -109.090862 6.490113e-04   8.433 1.03690e-04 7.47607e-05
       3539    35 -109.091511 -109.090844 6.665678e-04   8.433 1.03591e-04 7.49061e-05
       3540    27 -109.091511 -109.090836 6.749788e-04   8.433 1.03486e-04 7.50137e-05
       3541    35 -109.091511 -109.090821 6.897119e-04   8.433 1.03401e-04 7.50883e-05
       3542    27 -109.091511 -109.090816 6.952556e-04   8.433 1.03308e-04 7.51442e-05
       3543    29 -109.091511 -109.090811 7.005145e-04   8.433 1.03230e-04 7.51839e-05
       3544    29 -109.091511 -109.090802 7.093189e-04   8.433 1.03155e-04 7.52216e-05
       3545    29 -109.091512 -109.090798 7.136292e-04   8.433 1.03081e-04 7.52698e-05
       3546    29 -109.091512 -109.090797 7.144927e-04   8.433 1.03009e-04 7.53191e-05
       3547    29 -109.091512 -109.090799 7.132283e-04   8.433 1.02944e-04 7.53655e-05
       3548    29 -109.091512 -109.090802 7.100828e-04   8.433 1.02871e-04 7.54032e-05
       3549    29 -109.091512 -109.090807 7.049051e-04   8.433 1.02803e-04 7.54268e-05
       3550    29 -109.091512 -109.090814 6.977643e-04   8.433 1.02734e-04 7.54326e-05
       3551    29 -109.091512 -109.090824 6.888736e-04   8.433 1.02664e-04 7.54193e-05
       3552    29 -109.091512 -109.090834 6.784130e-04   8.433 1.02594e-04 7.53871e-05
       3553    29 -109.091513 -109.090846 6.666949e-04   8.433 1.02524e-04 7.53378e-05
       3554    29 -109.091513 -109.090859 6.539569e-04   8.433 1.02451e-04 7.52737e-05
       3555    29 -109.091513 -109.090872 6.404393e-04   8.433 1.02376e-04 7.51971e-05
       3556    29 -109.091513 -109.090886 6.263476e-04   8.433 1.02304e-04 7.51104e-05
       3557    29 -109.091513 -109.090901 6.118671e-04   8.433 1.02233e-04 7.50155e-05
       3558    29 -109.091513 -109.090916 5.971609e-04   8.433 1.02158e-04 7.49144e-05
       3559    29 -109.091513 -109.090930 5.823434e-04   8.433 1.02086e-04 7.48092e-05
       3560    29 -109.091513 -109.090945 5.675165e-04   8.433 1.02016e-04 7.47018e-05
       3561    29 -109.091513 -109.090960 5.527209e-04   8.433 1.01945e-04 7.45940e-05
       3562    29 -109.091513 -109.090975 5.380337e-04   8.433 1.01878e-04 7.44876e-05
       3563    29 -109.091513 -109.090989 5.234582e-04   8.433 1.01813e-04 7.43836e-05
       3564    29 -109.091512 -109.091003 5.090509e-04   8.433 1.01751e-04 7.42825e-05
       3565    29 -109.091512 -109.091018 4.948403e-04   8.433 1.01693e-04 7.41841e-05
       3566    29 -109.091512 -109.091032 4.808366e-04   8.433 1.01639e-04 7.40880e-05
       3567    29 -109.091512 -109.091045 4.671443e-04   8.433 1.01585e-04 7.39931e-05
       3568    29 -109.091512 -109.091058 4.537454e-04   8.433 1.01536e-04 7.38985e-05
       3569    29 -109.091512 -109.091071 4.407568e-04   8.433 1.01488e-04 7.38032e-05
       3570    29 -109.091512 -109.091084 4.282367e-04   8.433 1.01444e-04 7.37066e-05
       3571    29 -109.091512 -109.091096 4.162571e-04   8.433 1.01400e-04 7.36082e-05
       3572    29 -109.091512 -109.091107 4.048553e-04   8.433 1.01361e-04 7.35081e-05
       3573    29 -109.091512 -109.091118 3.941633e-04   8.433 1.01320e-04 7.34064e-05
       3574    29 -109.091512 -109.091127 3.842022e-04   8.433 1.01280e-04 7.33035e-05
       3575    29 -109.091512 -109.091136 3.750497e-04   8.433 1.01242e-04 7.32000e-05
       3576    29 -109.091511 -109.091145 3.667042e-04   8.433 1.01205e-04 7.30964e-05
       3577    29 -109.091511 -109.091152 3.592412e-04   8.433 1.01166e-04 7.29934e-05
       3578    29 -109.091511 -109.091158 3.526443e-04   8.433 1.01127e-04 7.28916e-05
       3579    29 -109.091511 -109.091164 3.469181e-04   8.433 1.01089e-04 7.27916e-05
       3580    29 -109.091511 -109.091169 3.420543e-04   8.433 1.01051e-04 7.26939e-05
       3581    29 -109.091511 -109.091173 3.380200e-04   8.433 1.01013e-04 7.25992e-05
       3582    29 -109.091511 -109.091176 3.347836e-04   8.433 1.00976e-04 7.25078e-05
       3583    28 -109.091510 -109.091178 3.323081e-04   8.433 1.00938e-04 7.24201e-05
       3584    29 -109.091510 -109.091180 3.305317e-04   8.433 1.00900e-04 7.23364e-05
       3585    29 -109.091510 -109.091181 3.294166e-04   8.433 1.00863e-04 7.22568e-05
       3586    29 -109.091510 -109.091181 3.289038e-04   8.433 1.00826e-04 7.21812e-05
       3587    29 -109.091510 -109.091181 3.289320e-04   8.433 1.00791e-04 7.21097e-05
       3588    29 -109.091510 -109.091180 3.294651e-04   8.433 1.00754e-04 7.20421e-05
       3589    29 -109.091510 -109.091179 3.304581e-04   8.433 1.00715e-04 7.19783e-05
       3590    29 -109.091510 -109.091178 3.318510e-04   8.433 1.00682e-04 7.19180e-05
       3591    29 -109.091510 -109.091176 3.336195e-04   8.433 1.00642e-04 7.18611e-05
       3592    29 -109.091510 -109.091174 3.356986e-04   8.433 1.00606e-04 7.18075e-05
       3593    29 -109.091509 -109.091171 3.380622e-04   8.433 1.00569e-04 7.17569e-05
       3594    29 -109.091509 -109.091169 3.406847e-04   8.433 1.00530e-04 7.17091e-05
       3595    29 -109.091509 -109.091166 3.435244e-04   8.433 1.00489e-04 7.16641e-05
       3596    29 -109.091509 -109.091163 3.465372e-04   8.433 1.00451e-04 7.16215e-05
       3597    29 -109.091509 -109.091159 3.496851e-04   8.433 1.00412e-04 7.15812e-05
       3598    29 -109.091509 -109.091156 3.529531e-04   8.433 1.00372e-04 7.15432e-05
       3599    29 -109.091509 -109.091153 3.562937e-04   8.433 1.00334e-04 7.15071e-05
       3600    29 -109.091509 -109.091149 3.596745e-04   8.433 1.00293e-04 7.14730e-05
       3601    29 -109.091509 -109.091146 3.630749e-04   8.433 1.00256e-04 7.14406e-05
       3602    29 -109.091509 -109.091142 3.664383e-04   8.433 1.00215e-04 7.14099e-05
       3603    29 -109.091509 -109.091139 3.697515e-04   8.433 1.00177e-04 7.13809e-05
       3604    29 -109.091509 -109.091136 3.729985e-04   8.433 1.00137e-04 7.13535e-05
       3605    29 -109.091509 -109.091132 3.761274e-04   8.433 1.00101e-04 7.13276e-05
       3606    29 -109.091509 -109.091129 3.791327e-04   8.433 1.00062e-04 7.13033e-05
       3607    29 -109.091508 -109.091126 3.819971e-04   8.433 1.00024e-04 7.12806e-05
       3608    29 -109.091508 -109.091124 3.847019e-04   8.433 9.99852e-05 7.12595e-05

        ==> Orbital Optimization <==

            Orbital Optimization converged in   1 iterations 
            Total energy change: -7.875371e-10
            Final gradient norm: 2.079432e-05


      v2RDM iterations converged!

    Molecular point group: d2h
    Full point group: D_inf_h

    Geometry (in Angstrom), charge = 0, multiplicity = 1:

       Center              X                  Y                   Z               Mass       
    ------------   -----------------  -----------------  -----------------  -----------------
         N            0.000000000000     0.000000000000    -0.550000000000    14.003074004430
         N            0.000000000000     0.000000000000     0.550000000000    14.003074004430

  -AO BASIS SET INFORMATION:
    Name                   = CC-PVDZ
    Blend                  = CC-PVDZ
    Total number of shells = 12
    Number of primitives   = 44
    Number of AO           = 30
    Number of SO           = 28
    Maximum AM             = 2
    Spherical Harmonics    = TRUE

  -Contraction Scheme:
    Atom   Type   All Primitives // Shells:
   ------ ------ --------------------------
       1     N     17s 4p 1d // 3s 2p 1d 
       2     N     17s 4p 1d // 3s 2p 1d 

  ==> AO Basis Functions <==

    [ CC-PVDZ ]
    spherical
    ****
    N   1
    S   8 1.00
                      9046.00000000           0.00070000
                      1357.00000000           0.00538900
                       309.30000000           0.02740600
                        87.73000000           0.10320700
                        28.56000000           0.27872300
                        10.21000000           0.44854000
                         3.83800000           0.27823800
                         0.74660000           0.01544000
    S   8 1.00
                      9046.00000000          -0.00015300
                      1357.00000000          -0.00120800
                       309.30000000          -0.00599200
                        87.73000000          -0.02454400
                        28.56000000          -0.06745900
                        10.21000000          -0.15807800
                         3.83800000          -0.12183100
                         0.74660000           0.54900300
    S   1 1.00
                         0.22480000           1.00000000
    P   3 1.00
                        13.55000000           0.03991900
                         2.91700000           0.21716900
                         0.79730000           0.51031900
    P   1 1.00
                         0.21850000           1.00000000
    D   1 1.00
                         0.81700000           1.00000000
    ****

      na:                                    3.000000
      nb:                                    3.000000
      v2RDM total spin [S(S+1)]:             0.000005

      Nuclear Repulsion Energy:               23.572439384391
      Two-Electron Energy:                    61.694995068505
      Kinetic Energy:                        109.105117075482
      Electron-Nuclear Potential Energy:    -303.464059976739

    * v2RDM total energy:                   -109.091508448360


 # Natural Orbital Occupation Numbers (alpha) #
 Irrep: 1
      1:  1.0000000
      2:  1.0000000
      3:  0.9909890
      4:  0.0000000
      5:  0.0000000
      6:  0.0000000
      7:  0.0000000

 Irrep: 2
      1:  0.0000000

 Irrep: 3
      1:  0.0303166
      2:  0.0000000
      3:  0.0000000

 Irrep: 4
      1:  0.0303166
      2:  0.0000000
      3:  0.0000000

 Irrep: 5
      1:  0.0000000

 Irrep: 6
      1:  1.0000000
      2:  1.0000000
      3:  0.0090278
      4:  0.0000000
      5:  0.0000000
      6:  0.0000000
      7:  0.0000000

 Irrep: 7
      1:  0.9696749
      2:  0.0000000
      3:  0.0000000

 Irrep: 8
      1:  0.9696750
      2:  0.0000000
      3:  0.0000000


 # Natural Orbital Occupation Numbers (beta) #
 Irrep: 1
      1:  1.0000000
      2:  1.0000000
      3:  0.9909890
      4:  0.0000000
      5:  0.0000000
      6:  0.0000000
      7:  0.0000000

 Irrep: 2
      1:  0.0000000

 Irrep: 3
      1:  0.0303166
      2:  0.0000000
      3:  0.0000000

 Irrep: 4
      1:  0.0303166
      2:  0.0000000
      3:  0.0000000

 Irrep: 5
      1:  0.0000000

 Irrep: 6
      1:  1.0000000
      2:  1.0000000
      3:  0.0090278
      4:  0.0000000
      5:  0.0000000
      6:  0.0000000
      7:  0.0000000

 Irrep: 7
      1:  0.9696749
      2:  0.0000000
      3:  0.0000000

 Irrep: 8
      1:  0.9696750
      2:  0.0000000
      3:  0.0000000


  ==> Iteration count <==

      Microiterations:                  104267
      Macroiterations:                    3609
      Orbital optimization steps:            8

  ==> Wall time <==

      Microiterations:                  184.44 s
      Macroiterations:                   20.00 s
      Orbital optimization:               0.26 s
      Total:                            210.90 s

    SCF total energy..................................................PASSED
    v2RDM-CASSCF total energy.........................................PASSED

    Psi4 stopped on: Thursday, 16 July 2020 09:28AM
    Psi4 wall time for execution: 0:03:31.35

*** Psi4 exiting successfully. Buy a developer a beer!
