
    -----------------------------------------------------------------------
          Psi4: An Open-Source Ab Initio Electronic Structure Package
                               Psi4 undefined 

                         Git: Rev {master} d3a7619 dirty


    D. G. A. Smith, L. A. Burns, A. C. Simmonett, R. M. Parrish,
    M. C. Schieber, R. Galvelis, P. Kraus, H. Kruse, R. Di Remigio,
    A. Alenaizan, A. M. James, S. Lehtola, J. P. Misiewicz, M. Scheurer,
    R. A. Shaw, J. B. Schriber, Y. Xie, Z. L. Glick, D. A. Sirianni,
    J. S. O'Brien, J. M. Waldrop, A. Kumar, E. G. Hohenstein,
    B. P. Pritchard, B. R. Brooks, H. F. Schaefer III, A. Yu. Sokolov,
    K. Patkowski, A. E. DePrince III, U. Bozkaya, R. A. King,
    F. A. Evangelista, J. M. Turney, T. D. Crawford, C. D. Sherrill,
    J. Chem. Phys. 152(18) 184108 (2020). https://doi.org/10.1063/5.0006002

                            Additional Code Authors
    E. T. Seidl, C. L. Janssen, E. F. Valeev, M. L. Leininger,
    J. F. Gonthier, R. M. Richard, H. R. McAlexander, M. Saitow, X. Wang,
    P. Verma, M. H. Lechner, and A. Jiang

             Previous Authors, Complete List of Code Contributors,
                       and Citations for Specific Modules
    https://github.com/psi4/psi4/blob/master/codemeta.json
    https://github.com/psi4/psi4/graphs/contributors
    http://psicode.org/psi4manual/master/introduction.html#citing-psifour

    -----------------------------------------------------------------------


    Psi4 started on: Saturday, 16 April 2022 03:07PM

    Process ID: 80827
    Host:       ed11
    PSIDATADIR: /edfs/users/deprince/edeprince3/psi4/install/master/share/psi4
    Memory:     500.0 MiB
    Threads:    1
    
  ==> Input File <==

--------------------------------------------------------------------------
# PYTHONPATH must include directory above plugin directory.
#     Define either externally or here, then import plugin.
sys.path.insert(0, '../../..')
import hilbert

molecule mol1 {
         O            0.000000000000     0.000000000000    -0.068516219320    
         H            0.000000000000    -0.790689573744     0.543701060715    
         H            0.000000000000     0.790689573744     0.543701060715    
no_reorient
nocom
symmetry c1
}
molecule mol2 {
         O             0.000000000000    -0.068516219320    0.000000000000    
         H            -0.790689573744     0.543701060715    0.000000000000    
         H             0.790689573744     0.543701060715    0.000000000000    
no_reorient
nocom
symmetry c1
}
molecule mol3 {
         O         -0.068516219320      0.000000000000     0.000000000000     
         H          0.543701060715      0.000000000000    -0.790689573744     
         H          0.543701060715      0.000000000000     0.790689573744     
no_reorient
nocom
symmetry c1
}

set {
  basis def2-tzvppd
  scf_type df 
  e_convergence 1e-10
  d_convergence 1e-10 
} 

# apparently lambda = 0.149557981435142
set hilbert {
  maxiter 500
  n_photon_states          2
  cavity_frequency         [0.0, 0.0, 0.495589583372]
  cavity_coupling_strength [0.0, 0.0, 0.150221990521748]
}

ref_dft = -76.409786399931

set reference uks
activate(mol1)
set basis def2-tzvppd
en,wfn = energy('tpssh',return_wfn=True)
energy('polaritonic-uks',ref_wfn=wfn)

compare_values(ref_dft, variable("SCF TOTAL ENERGY"), 8, "QEDFT total energy (xyz)") # TEST

set reference uks
activate(mol2)
set basis def2-tzvppd
set hilbert {
    rotate_polarization_axis "ZXY"
}
en,wfn = energy('tpssh',return_wfn=True)
energy('polaritonic-uks',ref_wfn=wfn)

compare_values(ref_dft, variable("SCF TOTAL ENERGY"), 8, "QEDFT total energy (zxy)") # TEST

set reference uks
activate(mol3)
set basis def2-tzvppd
set hilbert {
    rotate_polarization_axis "YZX"
}
en,wfn = energy('tpssh',return_wfn=True)
energy('polaritonic-uks',ref_wfn=wfn)

compare_values(ref_dft, variable("SCF TOTAL ENERGY"), 8, "QEDFT total energy (yzx)") # TEST
--------------------------------------------------------------------------
Warning: As of v1.5, the ~/.psi4rc file will no longer be read into Psi4 input.

Scratch directory: /scratch/deprince/scratch/

*** tstart() called on ed11
*** at Sat Apr 16 15:07:16 2022

   => Loading Basis Set <=

    Name: DEF2-TZVPPD
    Role: ORBITAL
    Keyword: BASIS
    atoms 1   entry O          line   218 file /edfs/users/deprince/edeprince3/psi4/install/master/share/psi4/basis/def2-tzvppd.gbs 
    atoms 2-3 entry H          line    14 file /edfs/users/deprince/edeprince3/psi4/install/master/share/psi4/basis/def2-tzvppd.gbs 


         ---------------------------------------------------------
                                   SCF
               by Justin Turney, Rob Parrish, Andy Simmonett
                          and Daniel G. A. Smith
                              UKS Reference
                        1 Threads,    500 MiB Core
         ---------------------------------------------------------

  ==> Geometry <==

    Molecular point group: c1
    Full point group: C2v

    Geometry (in Angstrom), charge = 0, multiplicity = 1:

       Center              X                  Y                   Z               Mass       
    ------------   -----------------  -----------------  -----------------  -----------------
         O            0.000000000000     0.000000000000    -0.068516219320    15.994914619570
         H            0.000000000000    -0.790689573744     0.543701060715     1.007825032230
         H            0.000000000000     0.790689573744     0.543701060715     1.007825032230

  Running in c1 symmetry.

  Rotational constants: A =     25.12555  B =     13.37733  C =      8.72955 [cm^-1]
  Rotational constants: A = 753245.07149  B = 401042.16706  C = 261705.25473 [MHz]
  Nuclear repulsion =    8.801465564563406

  Charge       = 0
  Multiplicity = 1
  Electrons    = 10
  Nalpha       = 5
  Nbeta        = 5

  ==> Algorithm <==

  SCF Algorithm Type is DF.
  DIIS enabled.
  MOM disabled.
  Fractional occupation disabled.
  Guess Type is SAD.
  Energy threshold   = 1.00e-10
  Density threshold  = 1.00e-10
  Integral threshold = 1.00e-12

  ==> Primary Basis <==

  Basis Set: DEF2-TZVPPD
    Blend: DEF2-TZVPPD
    Number of shells: 28
    Number of basis functions: 74
    Number of Cartesian functions: 82
    Spherical Harmonics?: true
    Max angular momentum: 3

  ==> DFT Potential <==

   => LibXC <=

    Version 5.1.5
    S. Lehtola, C. Steigemann, M. J. Oliveira, and M. A. Marques, SoftwareX 7, 1 (2018) (10.1016/j.softx.2017.11.002)

   => Composite Functional: TPSSH <= 

    TPSSh Hyb-GGA Exchange-Correlation Functional

    V. N. Staroverov, G. E. Scuseria, J. Tao, and J. P. Perdew, J. Chem. Phys. 119, 12129 (2003) (10.1063/1.1626543)

    Deriv               =              1
    GGA                 =           TRUE
    Meta                =           TRUE

    Exchange Hybrid     =           TRUE
    MP2 Hybrid          =          FALSE

   => Exchange Functionals <=

    0.9000   Tao, Perdew, Staroverov & Scuseria

   => Exact (HF) Exchange <=

    0.1000               HF 

   => Correlation Functionals <=

    1.0000   Tao, Perdew, Staroverov & Scuseria

   => LibXC Density Thresholds  <==

    XC_HYB_MGGA_XC_TPSSH:  1.00E-15 

   => Molecular Quadrature <=

    Radial Scheme          =       TREUTLER
    Pruning Scheme         =           NONE
    Nuclear Scheme         =       TREUTLER

    BS radius alpha        =              1
    Pruning alpha          =              1
    Radial Points          =             75
    Spherical Points       =            302
    Total Points           =          66724
    Total Blocks           =            557
    Max Points             =            255
    Max Functions          =             74
    Weights Tolerance      =       1.00E-15

   => Loading Basis Set <=

    Name: (DEF2-TZVPPD AUX)
    Role: JKFIT
    Keyword: DF_BASIS_SCF
    atoms 1   entry O          line   318 file /edfs/users/deprince/edeprince3/psi4/install/master/share/psi4/basis/def2-universal-jkfit.gbs 
    atoms 2-3 entry H          line    18 file /edfs/users/deprince/edeprince3/psi4/install/master/share/psi4/basis/def2-universal-jkfit.gbs 

  ==> Integral Setup <==

  DFHelper Memory: AOs need 0.006 GiB; user supplied 0.019 GiB. Using in-core AOs.

  ==> MemDFJK: Density-Fitted J/K Matrices <==

    J tasked:                   Yes
    K tasked:                   Yes
    wK tasked:                   No
    OpenMP threads:               1
    Memory [MiB]:                19
    Algorithm:                 Core
    Schwarz Cutoff:           1E-12
    Mask sparsity (%):       0.0000
    Fitting Condition:        1E-10

   => Auxiliary Basis Set <=

  Basis Set: (DEF2-TZVPPD AUX)
    Blend: DEF2-UNIVERSAL-JKFIT
    Number of shells: 37
    Number of basis functions: 113
    Number of Cartesian functions: 133
    Spherical Harmonics?: true
    Max angular momentum: 4

  Cached 100.0% of DFT collocation blocks in 0.347 [GiB].

  Minimum eigenvalue in the overlap matrix is 7.8812021163E-04.
  Reciprocal condition number of the overlap matrix is 1.2268631735E-04.
    Using symmetric orthogonalization.

  ==> Pre-Iterations <==

  SCF Guess: Superposition of Atomic Densities via on-the-fly atomic UHF (no occupation information).

   -------------------------
    Irrep   Nso     Nmo    
   -------------------------
     A         74      74 
   -------------------------
    Total      74      74
   -------------------------

  ==> Iterations <==

                           Total Energy        Delta E     RMS |[F,P]|

   @DF-UKS iter SAD:   -76.08031840199428   -7.60803e+01   0.00000e+00 
   @DF-UKS iter   1:   -76.27801403090177   -1.97696e-01   9.73962e-03 DIIS
   @DF-UKS iter   2:   -75.65428927880446    6.23725e-01   1.87770e-02 DIIS
   @DF-UKS iter   3:   -76.45680588119154   -8.02517e-01   9.52017e-04 DIIS
   @DF-UKS iter   4:   -76.45912034191690   -2.31446e-03   1.01016e-04 DIIS
   @DF-UKS iter   5:   -76.45914002664813   -1.96847e-05   2.04677e-05 DIIS
   @DF-UKS iter   6:   -76.45914082469754   -7.98049e-07   1.61197e-06 DIIS
   @DF-UKS iter   7:   -76.45914082880880   -4.11126e-09   1.16199e-07 DIIS
   @DF-UKS iter   8:   -76.45914082884286   -3.40634e-11   7.42146e-09 DIIS
   @DF-UKS iter   9:   -76.45914082884289   -2.84217e-14   3.69983e-10 DIIS
   @DF-UKS iter  10:   -76.45914082884298   -8.52651e-14   3.25601e-11 DIIS
  Energy and wave function converged.


  ==> Post-Iterations <==

   Electrons on quadrature grid:
      Nalpha   =    5.0000000031 ; deviation = 3.108e-09
      Nbeta    =    5.0000000031 ; deviation = 3.108e-09
      Ntotal   =   10.0000000062 ; deviation = 6.217e-09 

   @Spin Contamination Metric:  -1.598721155E-14
   @S^2 Expected:                0.000000000E+00
   @S^2 Observed:               -1.598721155E-14
   @S   Expected:                0.000000000E+00
   @S   Observed:                0.000000000E+00

    Orbital Energies [Eh]
    ---------------------

    Alpha Occupied:                                                       

       1A    -19.064970     2A     -0.978362     3A     -0.500624  
       4A     -0.370833     5A     -0.293116  

    Alpha Virtual:                                                        

       6A     -0.012230     7A      0.046495     8A      0.080046  
       9A      0.081773    10A      0.131238    11A      0.158702  
      12A      0.192397    13A      0.194785    14A      0.220133  
      15A      0.257452    16A      0.267982    17A      0.311739  
      18A      0.395987    19A      0.414696    20A      0.451833  
      21A      0.494368    22A      0.507448    23A      0.605338  
      24A      0.666736    25A      0.675740    26A      0.678041  
      27A      0.863236    28A      0.942103    29A      0.945592  
      30A      1.008757    31A      1.071862    32A      1.138944  
      33A      1.251297    34A      1.309959    35A      1.814278  
      36A      1.872035    37A      1.936286    38A      2.055809  
      39A      2.195283    40A      2.532896    41A      2.709943  
      42A      2.731306    43A      2.982260    44A      3.117846  
      45A      3.197205    46A      3.276303    47A      3.323515  
      48A      3.336227    49A      3.362111    50A      3.605539  
      51A      3.805825    52A      3.859815    53A      3.943143  
      54A      3.988523    55A      4.080444    56A      4.118340  
      57A      4.189121    58A      4.625184    59A      4.626979  
      60A      4.899912    61A      5.089950    62A      5.576311  
      63A      6.075576    64A      6.349695    65A      6.408641  
      66A      6.539171    67A      6.585497    68A      6.679207  
      69A      6.798710    70A      6.914134    71A      7.382475  
      72A      7.486332    73A      7.746431    74A     43.809546  

    Beta Occupied:                                                        

       1A    -19.064970     2A     -0.978362     3A     -0.500624  
       4A     -0.370833     5A     -0.293116  

    Beta Virtual:                                                         

       6A     -0.012230     7A      0.046495     8A      0.080046  
       9A      0.081773    10A      0.131238    11A      0.158702  
      12A      0.192397    13A      0.194785    14A      0.220133  
      15A      0.257452    16A      0.267982    17A      0.311739  
      18A      0.395987    19A      0.414696    20A      0.451833  
      21A      0.494368    22A      0.507448    23A      0.605338  
      24A      0.666736    25A      0.675740    26A      0.678041  
      27A      0.863236    28A      0.942103    29A      0.945592  
      30A      1.008757    31A      1.071862    32A      1.138944  
      33A      1.251297    34A      1.309959    35A      1.814278  
      36A      1.872035    37A      1.936286    38A      2.055809  
      39A      2.195283    40A      2.532896    41A      2.709943  
      42A      2.731306    43A      2.982260    44A      3.117846  
      45A      3.197205    46A      3.276303    47A      3.323515  
      48A      3.336227    49A      3.362111    50A      3.605539  
      51A      3.805825    52A      3.859815    53A      3.943143  
      54A      3.988523    55A      4.080444    56A      4.118340  
      57A      4.189121    58A      4.625184    59A      4.626979  
      60A      4.899912    61A      5.089950    62A      5.576311  
      63A      6.075576    64A      6.349695    65A      6.408641  
      66A      6.539171    67A      6.585497    68A      6.679207  
      69A      6.798710    70A      6.914134    71A      7.382475  
      72A      7.486332    73A      7.746431    74A     43.809546  

    Final Occupation by Irrep:
              A 
    DOCC [     5 ]
    SOCC [     0 ]

  @DF-UKS Final Energy:   -76.45914082884298

   => Energetics <=

    Nuclear Repulsion Energy =              8.8014655645634061
    One-Electron Energy =                -122.3530360269481605
    Two-Electron Energy =                  45.4971098847357851
    DFT Exchange-Correlation Energy =      -8.4046802511940157
    Empirical Dispersion Energy =           0.0000000000000000
    VV10 Nonlocal Energy =                  0.0000000000000000
    Total Energy =                        -76.4591408288429761

  UHF NO Occupations:
  HONO-2 :    3  A 2.0000000
  HONO-1 :    4  A 2.0000000
  HONO-0 :    5  A 2.0000000
  LUNO+0 :    6  A 0.0000000
  LUNO+1 :    7  A 0.0000000
  LUNO+2 :    8  A 0.0000000
  LUNO+3 :    9  A 0.0000000


Computation Completed


Properties will be evaluated at   0.000000,   0.000000,   0.000000 [a0]

Properties computed using the SCF density matrix

  Nuclear Dipole Moment: [e a0]
     X:     0.0000      Y:     0.0000      Z:     1.0191

  Electronic Dipole Moment: [e a0]
     X:    -0.0000      Y:     0.0000      Z:    -0.2932

  Dipole Moment: [e a0]
     X:    -0.0000      Y:     0.0000      Z:     0.7259     Total:     0.7259

  Dipole Moment: [D]
     X:    -0.0000      Y:     0.0000      Z:     1.8450     Total:     1.8450


*** tstop() called on ed11 at Sat Apr 16 15:07:24 2022
Module time:
	user time   =       8.27 seconds =       0.14 minutes
	system time =       0.21 seconds =       0.00 minutes
	total time  =          8 seconds =       0.13 minutes
Total time:
	user time   =       8.27 seconds =       0.14 minutes
	system time =       0.21 seconds =       0.00 minutes
	total time  =          8 seconds =       0.13 minutes

Scratch directory: /scratch/deprince/scratch/
   => Loading Basis Set <=

    Name: (DEF2-TZVPPD AUX)
    Role: JKFIT
    Keyword: DF_BASIS_SCF
    atoms 1   entry O          line   318 file /edfs/users/deprince/edeprince3/psi4/install/master/share/psi4/basis/def2-universal-jkfit.gbs 
    atoms 2-3 entry H          line    18 file /edfs/users/deprince/edeprince3/psi4/install/master/share/psi4/basis/def2-universal-jkfit.gbs 

   => Loading Basis Set <=

    Name: (DEF2-TZVPPD AUX)
    Role: RIFIT
    Keyword: DF_BASIS_CC
    atoms 1   entry O          line   333 file /edfs/users/deprince/edeprince3/psi4/install/master/share/psi4/basis/def2-tzvppd-ri.gbs 
    atoms 2-3 entry H          line    22 file /edfs/users/deprince/edeprince3/psi4/install/master/share/psi4/basis/def2-tzvppd-ri.gbs 


Reading options from the HILBERT block
Calling plugin hilbert.so.


    Molecular point group: c1
    Full point group: C2v

    Geometry (in Angstrom), charge = 0, multiplicity = 1:

       Center              X                  Y                   Z               Mass       
    ------------   -----------------  -----------------  -----------------  -----------------
         O            0.000000000000     0.000000000000    -0.068516219320    15.994914619570
         H            0.000000000000    -0.790689573744     0.543701060715     1.007825032230
         H            0.000000000000     0.790689573744     0.543701060715     1.007825032230

  -AO BASIS SET INFORMATION:
    Name                   = DEF2-TZVPPD
    Blend                  = DEF2-TZVPPD
    Total number of shells = 28
    Number of primitives   = 41
    Number of AO           = 82
    Number of SO           = 74
    Maximum AM             = 3
    Spherical Harmonics    = TRUE

  -Contraction Scheme:
    Atom   Type   All Primitives // Shells:
   ------ ------ --------------------------
       1     O     12s 7p 3d 1f // 6s 4p 3d 1f 
       2     H     5s 3p 1d // 3s 3p 1d 
       3     H     5s 3p 1d // 3s 3p 1d 

  ==> AO Basis Functions <==

    [ DEF2-TZVPPD ]
    spherical
    ****
    O   1
    S   6 1.00
                     27032.38263100           0.00021726
                      4052.38713920           0.00168387
                       922.32722710           0.00873956
                       261.24070989           0.03523997
                        85.35464135           0.11153519
                        31.03503524           0.25588954
    S   2 1.00
                        12.26086073           0.39768731
                         4.99870760           0.24627849
    S   1 1.00
                         1.17031082           1.00000000
    S   1 1.00
                         0.46474741           1.00000000
    S   1 1.00
                         0.18504536           1.00000000
    S   1 1.00
                         0.07028803           1.00000000
    P   4 1.00
                        63.27495480           0.00606851
                        14.62704938           0.04191258
                         4.45012235           0.16153841
                         1.52757996           0.35706951
    P   1 1.00
                         0.52935118           1.00000000
    P   1 1.00
                         0.17478421           1.00000000
    P   1 1.00
                         0.05111275           1.00000000
    D   1 1.00
                         2.31400000           1.00000000
    D   1 1.00
                         0.64500000           1.00000000
    D   1 1.00
                         0.14696477           1.00000000
    F   1 1.00
                         1.42800000           1.00000000
    ****
    H   2
    S   3 1.00
                        34.06134100           0.00602520
                         5.12357460           0.04502109
                         1.16466260           0.20189726
    S   1 1.00
                         0.32723041           1.00000000
    S   1 1.00
                         0.10307241           1.00000000
    P   1 1.00
                         1.40700000           1.00000000
    P   1 1.00
                         0.38800000           1.00000000
    P   1 1.00
                         0.09577413           1.00000000
    D   1 1.00
                         1.05700000           1.00000000
    ****
    H   3
    S   3 1.00
                        34.06134100           0.00602520
                         5.12357460           0.04502109
                         1.16466260           0.20189726
    S   1 1.00
                         0.32723041           1.00000000
    S   1 1.00
                         0.10307241           1.00000000
    P   1 1.00
                         1.40700000           1.00000000
    P   1 1.00
                         0.38800000           1.00000000
    P   1 1.00
                         0.09577413           1.00000000
    D   1 1.00
                         1.05700000           1.00000000
    ****



        *******************************************************
        *                                                     *
        *                                                     *
        *    Polaritonic UKS                                  *
        *                                                     *
        *                                                     *
        *******************************************************
    Molecular point group: c1
    Full point group: C2v

    Geometry (in Angstrom), charge = 0, multiplicity = 1:

       Center              X                  Y                   Z               Mass       
    ------------   -----------------  -----------------  -----------------  -----------------
         O            0.000000000000     0.000000000000    -0.068516219320    15.994914619570
         H            0.000000000000    -0.790689573744     0.543701060715     1.007825032230
         H            0.000000000000     0.790689573744     0.543701060715     1.007825032230

  -AO BASIS SET INFORMATION:
    Name                   = DEF2-TZVPPD
    Blend                  = DEF2-TZVPPD
    Total number of shells = 28
    Number of primitives   = 41
    Number of AO           = 82
    Number of SO           = 74
    Maximum AM             = 3
    Spherical Harmonics    = TRUE

  -Contraction Scheme:
    Atom   Type   All Primitives // Shells:
   ------ ------ --------------------------
       1     O     12s 7p 3d 1f // 6s 4p 3d 1f 
       2     H     5s 3p 1d // 3s 3p 1d 
       3     H     5s 3p 1d // 3s 3p 1d 

  ==> AO Basis Functions <==

    [ DEF2-TZVPPD ]
    spherical
    ****
    O   1
    S   6 1.00
                     27032.38263100           0.00021726
                      4052.38713920           0.00168387
                       922.32722710           0.00873956
                       261.24070989           0.03523997
                        85.35464135           0.11153519
                        31.03503524           0.25588954
    S   2 1.00
                        12.26086073           0.39768731
                         4.99870760           0.24627849
    S   1 1.00
                         1.17031082           1.00000000
    S   1 1.00
                         0.46474741           1.00000000
    S   1 1.00
                         0.18504536           1.00000000
    S   1 1.00
                         0.07028803           1.00000000
    P   4 1.00
                        63.27495480           0.00606851
                        14.62704938           0.04191258
                         4.45012235           0.16153841
                         1.52757996           0.35706951
    P   1 1.00
                         0.52935118           1.00000000
    P   1 1.00
                         0.17478421           1.00000000
    P   1 1.00
                         0.05111275           1.00000000
    D   1 1.00
                         2.31400000           1.00000000
    D   1 1.00
                         0.64500000           1.00000000
    D   1 1.00
                         0.14696477           1.00000000
    F   1 1.00
                         1.42800000           1.00000000
    ****
    H   2
    S   3 1.00
                        34.06134100           0.00602520
                         5.12357460           0.04502109
                         1.16466260           0.20189726
    S   1 1.00
                         0.32723041           1.00000000
    S   1 1.00
                         0.10307241           1.00000000
    P   1 1.00
                         1.40700000           1.00000000
    P   1 1.00
                         0.38800000           1.00000000
    P   1 1.00
                         0.09577413           1.00000000
    D   1 1.00
                         1.05700000           1.00000000
    ****
    H   3
    S   3 1.00
                        34.06134100           0.00602520
                         5.12357460           0.04502109
                         1.16466260           0.20189726
    S   1 1.00
                         0.32723041           1.00000000
    S   1 1.00
                         0.10307241           1.00000000
    P   1 1.00
                         1.40700000           1.00000000
    P   1 1.00
                         0.38800000           1.00000000
    P   1 1.00
                         0.09577413           1.00000000
    D   1 1.00
                         1.05700000           1.00000000
    ****

  ==> DFT Potential <==

   => LibXC <=

    Version 5.1.5
    S. Lehtola, C. Steigemann, M. J. Oliveira, and M. A. Marques, SoftwareX 7, 1 (2018) (10.1016/j.softx.2017.11.002)

   => Composite Functional: TPSSH <= 

    TPSSh Hyb-GGA Exchange-Correlation Functional

    V. N. Staroverov, G. E. Scuseria, J. Tao, and J. P. Perdew, J. Chem. Phys. 119, 12129 (2003) (10.1063/1.1626543)

    Deriv               =              1
    GGA                 =           TRUE
    Meta                =           TRUE

    Exchange Hybrid     =           TRUE
    MP2 Hybrid          =          FALSE

   => Exchange Functionals <=

    0.9000   Tao, Perdew, Staroverov & Scuseria

   => Exact (HF) Exchange <=

    0.1000               HF 

   => Correlation Functionals <=

    1.0000   Tao, Perdew, Staroverov & Scuseria

   => LibXC Density Thresholds  <==

    XC_HYB_MGGA_XC_TPSSH:  1.00E-15 

   => Molecular Quadrature <=

    Radial Scheme          =       TREUTLER
    Pruning Scheme         =           NONE
    Nuclear Scheme         =       TREUTLER

    BS radius alpha        =              1
    Pruning alpha          =              1
    Radial Points          =             75
    Spherical Points       =            302
    Total Points           =          66724
    Total Blocks           =            557
    Max Points             =            255
    Max Functions          =             74
    Weights Tolerance      =       1.00E-15


    No. basis functions:               74
    No. auxiliary basis functions:    113
    No. alpha electrons:                5
    No. beta electrons:                 5
    e_convergence:              1.000e-10
    d_convergence:              1.000e-10
    maxiter:                          500



    Guess energy:      -73.581996027681

    ==>  Begin SCF Iterations <==

     Iter               energy                   dE          RMS |[F,P]| 
        0     -76.408014659176      -2.826018631495       0.000532001744
        1     -76.409181294696      -0.001166635521       0.000558048020
        2     -76.408028964181       0.001152330515       0.000973261458
        3     -76.409786191935      -0.001757227754       0.000009684121
        4     -76.409786398238      -0.000000206302       0.000000867893
        5     -76.409786399895      -0.000000001657       0.000000129511
        6     -76.409786399931      -0.000000000036       0.000000013690
        7     -76.409786399931      -0.000000000000       0.000000001969
        8     -76.409786399931      -0.000000000000       0.000000000059

    SCF iterations converged!

    * Polaritonic UKS total energy:     -76.409786399931

    dipole self energy (one electron):       0.074272900515
    dipole self energy (two electron):      -0.026391984182
    dipole self energy (total):              0.047880916333


    ==> lambda-free contributions to dipole self energy <== 

    one electron (xx):       5.724581242672
    one electron (xy):       0.000000000000
    one electron (xz):       0.000000000000
    one electron (yy):       7.637935999290
    one electron (yz):      -0.000000000000
    one electron (zz):       6.641117898061

    two electron (xx):      -1.798237471037
    two electron (xy):       0.000000000000
    two electron (xz):      -0.000000000000
    two electron (yy):      -2.852807277418
    two electron (yz):       0.000000000000
    two electron (zz):      -2.359841574840

 #  #
 Irrep: 1
      1:  -19.042949256931426
      2:   -0.969973027505657
      3:   -0.483422668472082
      4:   -0.353318583892935
      5:   -0.274568367084290
      6:    0.046265430297326
      7:    0.106125753436745
      8:    0.147618868755568
      9:    0.204151979120176
     10:    0.228760345077071
     11:    0.241543696324625
     12:    0.248241205027805
     13:    0.302421438096363
     14:    0.317727725048214
     15:    0.363363429167550
     16:    0.383816554847182
     17:    0.400757160298378
     18:    0.494081590673980
     19:    0.506163029284606
     20:    0.533211284543415
     21:    0.552562247655265
     22:    0.611924611666247
     23:    0.671715166613303
     24:    0.720030692485219
     25:    0.724153887934974
     26:    0.748394466140528
     27:    0.909502351815308
     28:    0.971014666342169
     29:    1.003160783382720
     30:    1.039343458587893
     31:    1.132971023817971
     32:    1.184638023635589
     33:    1.301376376541233
     34:    1.360647107543794
     35:    1.840291716196392
     36:    1.893616639916890
     37:    1.968461805997260
     38:    2.088112235438059
     39:    2.228993175114296
     40:    2.566572885785745
     41:    2.739475324628643
     42:    2.754652426446960
     43:    3.012459551480603
     44:    3.141641617595279
     45:    3.218529175518115
     46:    3.302279229739696
     47:    3.353201200522272
     48:    3.363837880876395
     49:    3.384554960105274
     50:    3.631101767212848
     51:    3.826832071761178
     52:    3.882391931293647
     53:    3.975683054413467
     54:    4.013849193084035
     55:    4.101551042160420
     56:    4.144614413112738
     57:    4.219978474223999
     58:    4.649781055909365
     59:    4.650850096239192
     60:    4.924294424844525
     61:    5.115626248193598
     62:    5.597735143296524
     63:    6.098740819140858
     64:    6.369749944601524
     65:    6.427298085198561
     66:    6.559308791618242
     67:    6.607320598768331
     68:    6.705671874924273
     69:    6.819192586956456
     70:    6.934243574178125
     71:    7.406346498013233
     72:    7.508984113162803
     73:    7.769054963811913
     74:   43.832163137918087


 #  #
 Irrep: 1
      1:  -19.042949256931450
      2:   -0.969973027505702
      3:   -0.483422668472102
      4:   -0.353318583892944
      5:   -0.274568367084296
      6:    0.046265430297317
      7:    0.106125753436738
      8:    0.147618868755560
      9:    0.204151979120171
     10:    0.228760345077036
     11:    0.241543696324621
     12:    0.248241205027795
     13:    0.302421438096359
     14:    0.317727725048188
     15:    0.363363429167600
     16:    0.383816554847157
     17:    0.400757160298387
     18:    0.494081590673993
     19:    0.506163029284606
     20:    0.533211284543317
     21:    0.552562247655272
     22:    0.611924611666226
     23:    0.671715166613300
     24:    0.720030692485223
     25:    0.724153887934993
     26:    0.748394466140388
     27:    0.909502351815335
     28:    0.971014666342169
     29:    1.003160783382443
     30:    1.039343458587888
     31:    1.132971023817972
     32:    1.184638023635602
     33:    1.301376376541215
     34:    1.360647107543473
     35:    1.840291716196391
     36:    1.893616639916887
     37:    1.968461805997243
     38:    2.088112235437761
     39:    2.228993175114242
     40:    2.566572885785560
     41:    2.739475324628589
     42:    2.754652426446954
     43:    3.012459551480421
     44:    3.141641617595277
     45:    3.218529175518094
     46:    3.302279229739701
     47:    3.353201200522151
     48:    3.363837880876395
     49:    3.384554960105263
     50:    3.631101767212844
     51:    3.826832071761183
     52:    3.882391931293647
     53:    3.975683054413470
     54:    4.013849193084034
     55:    4.101551042160417
     56:    4.144614413112684
     57:    4.219978474223994
     58:    4.649781055909354
     59:    4.650850096239173
     60:    4.924294424844490
     61:    5.115626248193329
     62:    5.597735143296521
     63:    6.098740819140854
     64:    6.369749944601521
     65:    6.427298085198555
     66:    6.559308791618234
     67:    6.607320598768331
     68:    6.705671874924241
     69:    6.819192586956439
     70:    6.934243574178111
     71:    7.406346498013222
     72:    7.508984113162798
     73:    7.769054963811756
     74:   43.832163137918130

    QEDFT total energy (xyz)..............................................................PASSED

Scratch directory: /scratch/deprince/scratch/

*** tstart() called on ed11
*** at Sat Apr 16 15:07:34 2022

   => Loading Basis Set <=

    Name: DEF2-TZVPPD
    Role: ORBITAL
    Keyword: BASIS
    atoms 1   entry O          line   218 file /edfs/users/deprince/edeprince3/psi4/install/master/share/psi4/basis/def2-tzvppd.gbs 
    atoms 2-3 entry H          line    14 file /edfs/users/deprince/edeprince3/psi4/install/master/share/psi4/basis/def2-tzvppd.gbs 


         ---------------------------------------------------------
                                   SCF
               by Justin Turney, Rob Parrish, Andy Simmonett
                          and Daniel G. A. Smith
                              UKS Reference
                        1 Threads,    500 MiB Core
         ---------------------------------------------------------

  ==> Geometry <==

    Molecular point group: c1
    Full point group: C2v

    Geometry (in Angstrom), charge = 0, multiplicity = 1:

       Center              X                  Y                   Z               Mass       
    ------------   -----------------  -----------------  -----------------  -----------------
         O            0.000000000000    -0.068516219320     0.000000000000    15.994914619570
         H           -0.790689573744     0.543701060715     0.000000000000     1.007825032230
         H            0.790689573744     0.543701060715     0.000000000000     1.007825032230

  Running in c1 symmetry.

  Rotational constants: A =     25.12555  B =     13.37733  C =      8.72955 [cm^-1]
  Rotational constants: A = 753245.07149  B = 401042.16706  C = 261705.25473 [MHz]
  Nuclear repulsion =    8.801465564563404

  Charge       = 0
  Multiplicity = 1
  Electrons    = 10
  Nalpha       = 5
  Nbeta        = 5

  ==> Algorithm <==

  SCF Algorithm Type is DF.
  DIIS enabled.
  MOM disabled.
  Fractional occupation disabled.
  Guess Type is SAD.
  Energy threshold   = 1.00e-10
  Density threshold  = 1.00e-10
  Integral threshold = 1.00e-12

  ==> Primary Basis <==

  Basis Set: DEF2-TZVPPD
    Blend: DEF2-TZVPPD
    Number of shells: 28
    Number of basis functions: 74
    Number of Cartesian functions: 82
    Spherical Harmonics?: true
    Max angular momentum: 3

  ==> DFT Potential <==

   => LibXC <=

    Version 5.1.5
    S. Lehtola, C. Steigemann, M. J. Oliveira, and M. A. Marques, SoftwareX 7, 1 (2018) (10.1016/j.softx.2017.11.002)

   => Composite Functional: TPSSH <= 

    TPSSh Hyb-GGA Exchange-Correlation Functional

    V. N. Staroverov, G. E. Scuseria, J. Tao, and J. P. Perdew, J. Chem. Phys. 119, 12129 (2003) (10.1063/1.1626543)

    Deriv               =              1
    GGA                 =           TRUE
    Meta                =           TRUE

    Exchange Hybrid     =           TRUE
    MP2 Hybrid          =          FALSE

   => Exchange Functionals <=

    0.9000   Tao, Perdew, Staroverov & Scuseria

   => Exact (HF) Exchange <=

    0.1000               HF 

   => Correlation Functionals <=

    1.0000   Tao, Perdew, Staroverov & Scuseria

   => LibXC Density Thresholds  <==

    XC_HYB_MGGA_XC_TPSSH:  1.00E-15 

   => Molecular Quadrature <=

    Radial Scheme          =       TREUTLER
    Pruning Scheme         =           NONE
    Nuclear Scheme         =       TREUTLER

    BS radius alpha        =              1
    Pruning alpha          =              1
    Radial Points          =             75
    Spherical Points       =            302
    Total Points           =          66726
    Total Blocks           =            562
    Max Points             =            256
    Max Functions          =             74
    Weights Tolerance      =       1.00E-15

   => Loading Basis Set <=

    Name: (DEF2-TZVPPD AUX)
    Role: JKFIT
    Keyword: DF_BASIS_SCF
    atoms 1   entry O          line   318 file /edfs/users/deprince/edeprince3/psi4/install/master/share/psi4/basis/def2-universal-jkfit.gbs 
    atoms 2-3 entry H          line    18 file /edfs/users/deprince/edeprince3/psi4/install/master/share/psi4/basis/def2-universal-jkfit.gbs 

  ==> Integral Setup <==

  DFHelper Memory: AOs need 0.006 GiB; user supplied 0.018 GiB. Using in-core AOs.

  ==> MemDFJK: Density-Fitted J/K Matrices <==

    J tasked:                   Yes
    K tasked:                   Yes
    wK tasked:                   No
    OpenMP threads:               1
    Memory [MiB]:                18
    Algorithm:                 Core
    Schwarz Cutoff:           1E-12
    Mask sparsity (%):       0.0000
    Fitting Condition:        1E-10

   => Auxiliary Basis Set <=

  Basis Set: (DEF2-TZVPPD AUX)
    Blend: DEF2-UNIVERSAL-JKFIT
    Number of shells: 37
    Number of basis functions: 113
    Number of Cartesian functions: 133
    Spherical Harmonics?: true
    Max angular momentum: 4

  Cached 100.0% of DFT collocation blocks in 0.348 [GiB].

  Minimum eigenvalue in the overlap matrix is 7.8812021163E-04.
  Reciprocal condition number of the overlap matrix is 1.2268631735E-04.
    Using symmetric orthogonalization.

  ==> Pre-Iterations <==

  SCF Guess: Superposition of Atomic Densities via on-the-fly atomic UHF (no occupation information).

   -------------------------
    Irrep   Nso     Nmo    
   -------------------------
     A         74      74 
   -------------------------
    Total      74      74
   -------------------------

  ==> Iterations <==

                           Total Energy        Delta E     RMS |[F,P]|

   @DF-UKS iter SAD:   -76.08031840199082   -7.60803e+01   0.00000e+00 
   @DF-UKS iter   1:   -76.27801403089887   -1.97696e-01   9.73962e-03 DIIS
   @DF-UKS iter   2:   -75.65428927880447    6.23725e-01   1.87770e-02 DIIS
   @DF-UKS iter   3:   -76.45680588118778   -8.02517e-01   9.52017e-04 DIIS
   @DF-UKS iter   4:   -76.45912034191325   -2.31446e-03   1.01016e-04 DIIS
   @DF-UKS iter   5:   -76.45914002664428   -1.96847e-05   2.04677e-05 DIIS
   @DF-UKS iter   6:   -76.45914082469380   -7.98050e-07   1.61197e-06 DIIS
   @DF-UKS iter   7:   -76.45914082880506   -4.11126e-09   1.16199e-07 DIIS
   @DF-UKS iter   8:   -76.45914082883904   -3.39782e-11   7.42146e-09 DIIS
   @DF-UKS iter   9:   -76.45914082883914   -9.94760e-14   3.69983e-10 DIIS
   @DF-UKS iter  10:   -76.45914082883925   -1.13687e-13   3.25597e-11 DIIS
  Energy and wave function converged.


  ==> Post-Iterations <==

   Electrons on quadrature grid:
      Nalpha   =    5.0000000031 ; deviation = 3.108e-09
      Nbeta    =    5.0000000031 ; deviation = 3.108e-09
      Ntotal   =   10.0000000062 ; deviation = 6.217e-09 

   @Spin Contamination Metric:  -2.220446049E-14
   @S^2 Expected:                0.000000000E+00
   @S^2 Observed:               -2.220446049E-14
   @S   Expected:                0.000000000E+00
   @S   Observed:                0.000000000E+00

    Orbital Energies [Eh]
    ---------------------

    Alpha Occupied:                                                       

       1A    -19.064970     2A     -0.978362     3A     -0.500624  
       4A     -0.370833     5A     -0.293116  

    Alpha Virtual:                                                        

       6A     -0.012230     7A      0.046495     8A      0.080046  
       9A      0.081773    10A      0.131238    11A      0.158702  
      12A      0.192397    13A      0.194785    14A      0.220133  
      15A      0.257452    16A      0.267982    17A      0.311739  
      18A      0.395987    19A      0.414696    20A      0.451833  
      21A      0.494368    22A      0.507448    23A      0.605338  
      24A      0.666736    25A      0.675740    26A      0.678041  
      27A      0.863236    28A      0.942103    29A      0.945592  
      30A      1.008757    31A      1.071862    32A      1.138944  
      33A      1.251297    34A      1.309959    35A      1.814278  
      36A      1.872035    37A      1.936286    38A      2.055809  
      39A      2.195283    40A      2.532896    41A      2.709943  
      42A      2.731306    43A      2.982260    44A      3.117846  
      45A      3.197205    46A      3.276303    47A      3.323515  
      48A      3.336227    49A      3.362111    50A      3.605539  
      51A      3.805825    52A      3.859815    53A      3.943143  
      54A      3.988523    55A      4.080444    56A      4.118340  
      57A      4.189121    58A      4.625184    59A      4.626979  
      60A      4.899912    61A      5.089950    62A      5.576311  
      63A      6.075576    64A      6.349695    65A      6.408641  
      66A      6.539171    67A      6.585497    68A      6.679207  
      69A      6.798710    70A      6.914134    71A      7.382475  
      72A      7.486332    73A      7.746431    74A     43.809546  

    Beta Occupied:                                                        

       1A    -19.064970     2A     -0.978362     3A     -0.500624  
       4A     -0.370833     5A     -0.293116  

    Beta Virtual:                                                         

       6A     -0.012230     7A      0.046495     8A      0.080046  
       9A      0.081773    10A      0.131238    11A      0.158702  
      12A      0.192397    13A      0.194785    14A      0.220133  
      15A      0.257452    16A      0.267982    17A      0.311739  
      18A      0.395987    19A      0.414696    20A      0.451833  
      21A      0.494368    22A      0.507448    23A      0.605338  
      24A      0.666736    25A      0.675740    26A      0.678041  
      27A      0.863236    28A      0.942103    29A      0.945592  
      30A      1.008757    31A      1.071862    32A      1.138944  
      33A      1.251297    34A      1.309959    35A      1.814278  
      36A      1.872035    37A      1.936286    38A      2.055809  
      39A      2.195283    40A      2.532896    41A      2.709943  
      42A      2.731306    43A      2.982260    44A      3.117846  
      45A      3.197205    46A      3.276303    47A      3.323515  
      48A      3.336227    49A      3.362111    50A      3.605539  
      51A      3.805825    52A      3.859815    53A      3.943143  
      54A      3.988523    55A      4.080444    56A      4.118340  
      57A      4.189121    58A      4.625184    59A      4.626979  
      60A      4.899912    61A      5.089950    62A      5.576311  
      63A      6.075576    64A      6.349695    65A      6.408641  
      66A      6.539171    67A      6.585497    68A      6.679207  
      69A      6.798710    70A      6.914134    71A      7.382475  
      72A      7.486332    73A      7.746431    74A     43.809546  

    Final Occupation by Irrep:
              A 
    DOCC [     5 ]
    SOCC [     0 ]

  @DF-UKS Final Energy:   -76.45914082883925

   => Energetics <=

    Nuclear Repulsion Energy =              8.8014655645634043
    One-Electron Energy =                -122.3530360269419077
    Two-Electron Energy =                  45.4971098847324740
    DFT Exchange-Correlation Energy =      -8.4046802511932128
    Empirical Dispersion Energy =           0.0000000000000000
    VV10 Nonlocal Energy =                  0.0000000000000000
    Total Energy =                        -76.4591408288392529

  UHF NO Occupations:
  HONO-2 :    3  A 2.0000000
  HONO-1 :    4  A 2.0000000
  HONO-0 :    5  A 2.0000000
  LUNO+0 :    6  A 0.0000000
  LUNO+1 :    7  A 0.0000000
  LUNO+2 :    8  A 0.0000000
  LUNO+3 :    9  A 0.0000000


Computation Completed


Properties will be evaluated at   0.000000,   0.000000,   0.000000 [a0]

Properties computed using the SCF density matrix

  Nuclear Dipole Moment: [e a0]
     X:     0.0000      Y:     1.0191      Z:     0.0000

  Electronic Dipole Moment: [e a0]
     X:     0.0000      Y:    -0.2932      Z:     0.0000

  Dipole Moment: [e a0]
     X:     0.0000      Y:     0.7259      Z:     0.0000     Total:     0.7259

  Dipole Moment: [D]
     X:     0.0000      Y:     1.8450      Z:     0.0000     Total:     1.8450


*** tstop() called on ed11 at Sat Apr 16 15:07:43 2022
Module time:
	user time   =       8.72 seconds =       0.15 minutes
	system time =       0.09 seconds =       0.00 minutes
	total time  =          9 seconds =       0.15 minutes
Total time:
	user time   =      26.13 seconds =       0.44 minutes
	system time =       0.37 seconds =       0.01 minutes
	total time  =         27 seconds =       0.45 minutes

Scratch directory: /scratch/deprince/scratch/
   => Loading Basis Set <=

    Name: (DEF2-TZVPPD AUX)
    Role: JKFIT
    Keyword: DF_BASIS_SCF
    atoms 1   entry O          line   318 file /edfs/users/deprince/edeprince3/psi4/install/master/share/psi4/basis/def2-universal-jkfit.gbs 
    atoms 2-3 entry H          line    18 file /edfs/users/deprince/edeprince3/psi4/install/master/share/psi4/basis/def2-universal-jkfit.gbs 

   => Loading Basis Set <=

    Name: (DEF2-TZVPPD AUX)
    Role: RIFIT
    Keyword: DF_BASIS_CC
    atoms 1   entry O          line   333 file /edfs/users/deprince/edeprince3/psi4/install/master/share/psi4/basis/def2-tzvppd-ri.gbs 
    atoms 2-3 entry H          line    22 file /edfs/users/deprince/edeprince3/psi4/install/master/share/psi4/basis/def2-tzvppd-ri.gbs 


Reading options from the HILBERT block
Calling plugin hilbert.so.


    Molecular point group: c1
    Full point group: C2v

    Geometry (in Angstrom), charge = 0, multiplicity = 1:

       Center              X                  Y                   Z               Mass       
    ------------   -----------------  -----------------  -----------------  -----------------
         O            0.000000000000    -0.068516219320     0.000000000000    15.994914619570
         H           -0.790689573744     0.543701060715     0.000000000000     1.007825032230
         H            0.790689573744     0.543701060715     0.000000000000     1.007825032230

  -AO BASIS SET INFORMATION:
    Name                   = DEF2-TZVPPD
    Blend                  = DEF2-TZVPPD
    Total number of shells = 28
    Number of primitives   = 41
    Number of AO           = 82
    Number of SO           = 74
    Maximum AM             = 3
    Spherical Harmonics    = TRUE

  -Contraction Scheme:
    Atom   Type   All Primitives // Shells:
   ------ ------ --------------------------
       1     O     12s 7p 3d 1f // 6s 4p 3d 1f 
       2     H     5s 3p 1d // 3s 3p 1d 
       3     H     5s 3p 1d // 3s 3p 1d 

  ==> AO Basis Functions <==

    [ DEF2-TZVPPD ]
    spherical
    ****
    O   1
    S   6 1.00
                     27032.38263100           0.00021726
                      4052.38713920           0.00168387
                       922.32722710           0.00873956
                       261.24070989           0.03523997
                        85.35464135           0.11153519
                        31.03503524           0.25588954
    S   2 1.00
                        12.26086073           0.39768731
                         4.99870760           0.24627849
    S   1 1.00
                         1.17031082           1.00000000
    S   1 1.00
                         0.46474741           1.00000000
    S   1 1.00
                         0.18504536           1.00000000
    S   1 1.00
                         0.07028803           1.00000000
    P   4 1.00
                        63.27495480           0.00606851
                        14.62704938           0.04191258
                         4.45012235           0.16153841
                         1.52757996           0.35706951
    P   1 1.00
                         0.52935118           1.00000000
    P   1 1.00
                         0.17478421           1.00000000
    P   1 1.00
                         0.05111275           1.00000000
    D   1 1.00
                         2.31400000           1.00000000
    D   1 1.00
                         0.64500000           1.00000000
    D   1 1.00
                         0.14696477           1.00000000
    F   1 1.00
                         1.42800000           1.00000000
    ****
    H   2
    S   3 1.00
                        34.06134100           0.00602520
                         5.12357460           0.04502109
                         1.16466260           0.20189726
    S   1 1.00
                         0.32723041           1.00000000
    S   1 1.00
                         0.10307241           1.00000000
    P   1 1.00
                         1.40700000           1.00000000
    P   1 1.00
                         0.38800000           1.00000000
    P   1 1.00
                         0.09577413           1.00000000
    D   1 1.00
                         1.05700000           1.00000000
    ****
    H   3
    S   3 1.00
                        34.06134100           0.00602520
                         5.12357460           0.04502109
                         1.16466260           0.20189726
    S   1 1.00
                         0.32723041           1.00000000
    S   1 1.00
                         0.10307241           1.00000000
    P   1 1.00
                         1.40700000           1.00000000
    P   1 1.00
                         0.38800000           1.00000000
    P   1 1.00
                         0.09577413           1.00000000
    D   1 1.00
                         1.05700000           1.00000000
    ****



        *******************************************************
        *                                                     *
        *                                                     *
        *    Polaritonic UKS                                  *
        *                                                     *
        *                                                     *
        *******************************************************
    Molecular point group: c1
    Full point group: C2v

    Geometry (in Angstrom), charge = 0, multiplicity = 1:

       Center              X                  Y                   Z               Mass       
    ------------   -----------------  -----------------  -----------------  -----------------
         O            0.000000000000    -0.068516219320     0.000000000000    15.994914619570
         H           -0.790689573744     0.543701060715     0.000000000000     1.007825032230
         H            0.790689573744     0.543701060715     0.000000000000     1.007825032230

  -AO BASIS SET INFORMATION:
    Name                   = DEF2-TZVPPD
    Blend                  = DEF2-TZVPPD
    Total number of shells = 28
    Number of primitives   = 41
    Number of AO           = 82
    Number of SO           = 74
    Maximum AM             = 3
    Spherical Harmonics    = TRUE

  -Contraction Scheme:
    Atom   Type   All Primitives // Shells:
   ------ ------ --------------------------
       1     O     12s 7p 3d 1f // 6s 4p 3d 1f 
       2     H     5s 3p 1d // 3s 3p 1d 
       3     H     5s 3p 1d // 3s 3p 1d 

  ==> AO Basis Functions <==

    [ DEF2-TZVPPD ]
    spherical
    ****
    O   1
    S   6 1.00
                     27032.38263100           0.00021726
                      4052.38713920           0.00168387
                       922.32722710           0.00873956
                       261.24070989           0.03523997
                        85.35464135           0.11153519
                        31.03503524           0.25588954
    S   2 1.00
                        12.26086073           0.39768731
                         4.99870760           0.24627849
    S   1 1.00
                         1.17031082           1.00000000
    S   1 1.00
                         0.46474741           1.00000000
    S   1 1.00
                         0.18504536           1.00000000
    S   1 1.00
                         0.07028803           1.00000000
    P   4 1.00
                        63.27495480           0.00606851
                        14.62704938           0.04191258
                         4.45012235           0.16153841
                         1.52757996           0.35706951
    P   1 1.00
                         0.52935118           1.00000000
    P   1 1.00
                         0.17478421           1.00000000
    P   1 1.00
                         0.05111275           1.00000000
    D   1 1.00
                         2.31400000           1.00000000
    D   1 1.00
                         0.64500000           1.00000000
    D   1 1.00
                         0.14696477           1.00000000
    F   1 1.00
                         1.42800000           1.00000000
    ****
    H   2
    S   3 1.00
                        34.06134100           0.00602520
                         5.12357460           0.04502109
                         1.16466260           0.20189726
    S   1 1.00
                         0.32723041           1.00000000
    S   1 1.00
                         0.10307241           1.00000000
    P   1 1.00
                         1.40700000           1.00000000
    P   1 1.00
                         0.38800000           1.00000000
    P   1 1.00
                         0.09577413           1.00000000
    D   1 1.00
                         1.05700000           1.00000000
    ****
    H   3
    S   3 1.00
                        34.06134100           0.00602520
                         5.12357460           0.04502109
                         1.16466260           0.20189726
    S   1 1.00
                         0.32723041           1.00000000
    S   1 1.00
                         0.10307241           1.00000000
    P   1 1.00
                         1.40700000           1.00000000
    P   1 1.00
                         0.38800000           1.00000000
    P   1 1.00
                         0.09577413           1.00000000
    D   1 1.00
                         1.05700000           1.00000000
    ****

  ==> DFT Potential <==

   => LibXC <=

    Version 5.1.5
    S. Lehtola, C. Steigemann, M. J. Oliveira, and M. A. Marques, SoftwareX 7, 1 (2018) (10.1016/j.softx.2017.11.002)

   => Composite Functional: TPSSH <= 

    TPSSh Hyb-GGA Exchange-Correlation Functional

    V. N. Staroverov, G. E. Scuseria, J. Tao, and J. P. Perdew, J. Chem. Phys. 119, 12129 (2003) (10.1063/1.1626543)

    Deriv               =              1
    GGA                 =           TRUE
    Meta                =           TRUE

    Exchange Hybrid     =           TRUE
    MP2 Hybrid          =          FALSE

   => Exchange Functionals <=

    0.9000   Tao, Perdew, Staroverov & Scuseria

   => Exact (HF) Exchange <=

    0.1000               HF 

   => Correlation Functionals <=

    1.0000   Tao, Perdew, Staroverov & Scuseria

   => LibXC Density Thresholds  <==

    XC_HYB_MGGA_XC_TPSSH:  1.00E-15 

   => Molecular Quadrature <=

    Radial Scheme          =       TREUTLER
    Pruning Scheme         =           NONE
    Nuclear Scheme         =       TREUTLER

    BS radius alpha        =              1
    Pruning alpha          =              1
    Radial Points          =             75
    Spherical Points       =            302
    Total Points           =          66726
    Total Blocks           =            562
    Max Points             =            256
    Max Functions          =             74
    Weights Tolerance      =       1.00E-15


    No. basis functions:               74
    No. auxiliary basis functions:    113
    No. alpha electrons:                5
    No. beta electrons:                 5
    e_convergence:              1.000e-10
    d_convergence:              1.000e-10
    maxiter:                          500



    Guess energy:      -73.581996027677

    ==>  Begin SCF Iterations <==

     Iter               energy                   dE          RMS |[F,P]| 
        0     -76.408014659171      -2.826018631494       0.000532001744
        1     -76.409181294692      -0.001166635521       0.000558048020
        2     -76.408028964177       0.001152330515       0.000973261458
        3     -76.409786191931      -0.001757227754       0.000009684121
        4     -76.409786398233      -0.000000206302       0.000000867893
        5     -76.409786399890      -0.000000001657       0.000000129511
        6     -76.409786399926      -0.000000000036       0.000000013690
        7     -76.409786399927      -0.000000000000       0.000000001969
        8     -76.409786399927      -0.000000000000       0.000000000059

    SCF iterations converged!

    * Polaritonic UKS total energy:     -76.409786399927

    dipole self energy (one electron):       0.074272900515
    dipole self energy (two electron):      -0.026391984182
    dipole self energy (total):              0.047880916333


    ==> lambda-free contributions to dipole self energy <== 

    one electron (xx):       5.724581242675
    one electron (xy):       0.000000000000
    one electron (xz):      -0.000000000000
    one electron (yy):       7.637935999293
    one electron (yz):      -0.000000000000
    one electron (zz):       6.641117898064

    two electron (xx):      -1.798237471038
    two electron (xy):      -0.000000000000
    two electron (xz):       0.000000000000
    two electron (yy):      -2.852807277419
    two electron (yz):       0.000000000000
    two electron (zz):      -2.359841574841

 #  #
 Irrep: 1
      1:  -19.042949256931522
      2:   -0.969973027505460
      3:   -0.483422668472001
      4:   -0.353318583892867
      5:   -0.274568367084348
      6:    0.046265430297527
      7:    0.106125753436759
      8:    0.147618868755652
      9:    0.204151979120660
     10:    0.228760345078055
     11:    0.241543696325202
     12:    0.248241205027901
     13:    0.302421438096416
     14:    0.317727725050261
     15:    0.363363429169442
     16:    0.383816554848299
     17:    0.400757160298475
     18:    0.494081590675204
     19:    0.506163029284445
     20:    0.533211284549013
     21:    0.552562247656302
     22:    0.611924611667308
     23:    0.671715166617236
     24:    0.720030692484896
     25:    0.724153887935762
     26:    0.748394466146883
     27:    0.909502351825712
     28:    0.971014666342342
     29:    1.003160783393048
     30:    1.039343458588350
     31:    1.132971023818974
     32:    1.184638023637189
     33:    1.301376376546618
     34:    1.360647107555969
     35:    1.840291716196331
     36:    1.893616639916923
     37:    1.968461805997939
     38:    2.088112235442221
     39:    2.228993175131690
     40:    2.566572885789150
     41:    2.739475324634744
     42:    2.754652426446048
     43:    3.012459551480644
     44:    3.141641617595322
     45:    3.218529175519177
     46:    3.302279229738115
     47:    3.353201200527733
     48:    3.363837880876824
     49:    3.384554960105340
     50:    3.631101767213020
     51:    3.826832071761175
     52:    3.882391931293847
     53:    3.975683054413862
     54:    4.013849193084079
     55:    4.101551042160324
     56:    4.144614413114459
     57:    4.219978474224733
     58:    4.649781055911933
     59:    4.650850096239330
     60:    4.924294424852130
     61:    5.115626248201015
     62:    5.597735143296684
     63:    6.098740819141300
     64:    6.369749944601721
     65:    6.427298085198961
     66:    6.559308791618675
     67:    6.607320598768613
     68:    6.705671874924917
     69:    6.819192586956479
     70:    6.934243574179040
     71:    7.406346498013781
     72:    7.508984113164768
     73:    7.769054963814999
     74:   43.832163137918229


 #  #
 Irrep: 1
      1:  -19.042949256931522
      2:   -0.969973027505412
      3:   -0.483422668471996
      4:   -0.353318583892859
      5:   -0.274568367084349
      6:    0.046265430297482
      7:    0.106125753436759
      8:    0.147618868755654
      9:    0.204151979120664
     10:    0.228760345078097
     11:    0.241543696325204
     12:    0.248241205027904
     13:    0.302421438096411
     14:    0.317727725050295
     15:    0.363363429169554
     16:    0.383816554848335
     17:    0.400757160298496
     18:    0.494081590675245
     19:    0.506163029284439
     20:    0.533211284549098
     21:    0.552562247656305
     22:    0.611924611667337
     23:    0.671715166617283
     24:    0.720030692484883
     25:    0.724153887935845
     26:    0.748394466146972
     27:    0.909502351825605
     28:    0.971014666342351
     29:    1.003160783393173
     30:    1.039343458588357
     31:    1.132971023818979
     32:    1.184638023637178
     33:    1.301376376546538
     34:    1.360647107556115
     35:    1.840291716196329
     36:    1.893616639916921
     37:    1.968461805997947
     38:    2.088112235442276
     39:    2.228993175131368
     40:    2.566572885789136
     41:    2.739475324634685
     42:    2.754652426446046
     43:    3.012459551480660
     44:    3.141641617595323
     45:    3.218529175519160
     46:    3.302279229738117
     47:    3.353201200527602
     48:    3.363837880876820
     49:    3.384554960105341
     50:    3.631101767213017
     51:    3.826832071761176
     52:    3.882391931293848
     53:    3.975683054413858
     54:    4.013849193084079
     55:    4.101551042160329
     56:    4.144614413114486
     57:    4.219978474224731
     58:    4.649781055911885
     59:    4.650850096239329
     60:    4.924294424852010
     61:    5.115626248200983
     62:    5.597735143296686
     63:    6.098740819141296
     64:    6.369749944601721
     65:    6.427298085198963
     66:    6.559308791618665
     67:    6.607320598768620
     68:    6.705671874924922
     69:    6.819192586956479
     70:    6.934243574179037
     71:    7.406346498013776
     72:    7.508984113164715
     73:    7.769054963814928
     74:   43.832163137918229

    QEDFT total energy (zxy)..............................................................PASSED

Scratch directory: /scratch/deprince/scratch/

*** tstart() called on ed11
*** at Sat Apr 16 15:07:52 2022

   => Loading Basis Set <=

    Name: DEF2-TZVPPD
    Role: ORBITAL
    Keyword: BASIS
    atoms 1   entry O          line   218 file /edfs/users/deprince/edeprince3/psi4/install/master/share/psi4/basis/def2-tzvppd.gbs 
    atoms 2-3 entry H          line    14 file /edfs/users/deprince/edeprince3/psi4/install/master/share/psi4/basis/def2-tzvppd.gbs 


         ---------------------------------------------------------
                                   SCF
               by Justin Turney, Rob Parrish, Andy Simmonett
                          and Daniel G. A. Smith
                              UKS Reference
                        1 Threads,    500 MiB Core
         ---------------------------------------------------------

  ==> Geometry <==

    Molecular point group: c1
    Full point group: C2v

    Geometry (in Angstrom), charge = 0, multiplicity = 1:

       Center              X                  Y                   Z               Mass       
    ------------   -----------------  -----------------  -----------------  -----------------
         O           -0.068516219320     0.000000000000     0.000000000000    15.994914619570
         H            0.543701060715     0.000000000000    -0.790689573744     1.007825032230
         H            0.543701060715     0.000000000000     0.790689573744     1.007825032230

  Running in c1 symmetry.

  Rotational constants: A =     25.12555  B =     13.37733  C =      8.72955 [cm^-1]
  Rotational constants: A = 753245.07149  B = 401042.16706  C = 261705.25473 [MHz]
  Nuclear repulsion =    8.801465564563404

  Charge       = 0
  Multiplicity = 1
  Electrons    = 10
  Nalpha       = 5
  Nbeta        = 5

  ==> Algorithm <==

  SCF Algorithm Type is DF.
  DIIS enabled.
  MOM disabled.
  Fractional occupation disabled.
  Guess Type is SAD.
  Energy threshold   = 1.00e-10
  Density threshold  = 1.00e-10
  Integral threshold = 1.00e-12

  ==> Primary Basis <==

  Basis Set: DEF2-TZVPPD
    Blend: DEF2-TZVPPD
    Number of shells: 28
    Number of basis functions: 74
    Number of Cartesian functions: 82
    Spherical Harmonics?: true
    Max angular momentum: 3

  ==> DFT Potential <==

   => LibXC <=

    Version 5.1.5
    S. Lehtola, C. Steigemann, M. J. Oliveira, and M. A. Marques, SoftwareX 7, 1 (2018) (10.1016/j.softx.2017.11.002)

   => Composite Functional: TPSSH <= 

    TPSSh Hyb-GGA Exchange-Correlation Functional

    V. N. Staroverov, G. E. Scuseria, J. Tao, and J. P. Perdew, J. Chem. Phys. 119, 12129 (2003) (10.1063/1.1626543)

    Deriv               =              1
    GGA                 =           TRUE
    Meta                =           TRUE

    Exchange Hybrid     =           TRUE
    MP2 Hybrid          =          FALSE

   => Exchange Functionals <=

    0.9000   Tao, Perdew, Staroverov & Scuseria

   => Exact (HF) Exchange <=

    0.1000               HF 

   => Correlation Functionals <=

    1.0000   Tao, Perdew, Staroverov & Scuseria

   => LibXC Density Thresholds  <==

    XC_HYB_MGGA_XC_TPSSH:  1.00E-15 

   => Molecular Quadrature <=

    Radial Scheme          =       TREUTLER
    Pruning Scheme         =           NONE
    Nuclear Scheme         =       TREUTLER

    BS radius alpha        =              1
    Pruning alpha          =              1
    Radial Points          =             75
    Spherical Points       =            302
    Total Points           =          66726
    Total Blocks           =            554
    Max Points             =            255
    Max Functions          =             74
    Weights Tolerance      =       1.00E-15

   => Loading Basis Set <=

    Name: (DEF2-TZVPPD AUX)
    Role: JKFIT
    Keyword: DF_BASIS_SCF
    atoms 1   entry O          line   318 file /edfs/users/deprince/edeprince3/psi4/install/master/share/psi4/basis/def2-universal-jkfit.gbs 
    atoms 2-3 entry H          line    18 file /edfs/users/deprince/edeprince3/psi4/install/master/share/psi4/basis/def2-universal-jkfit.gbs 

  ==> Integral Setup <==

  DFHelper Memory: AOs need 0.006 GiB; user supplied 0.019 GiB. Using in-core AOs.

  ==> MemDFJK: Density-Fitted J/K Matrices <==

    J tasked:                   Yes
    K tasked:                   Yes
    wK tasked:                   No
    OpenMP threads:               1
    Memory [MiB]:                19
    Algorithm:                 Core
    Schwarz Cutoff:           1E-12
    Mask sparsity (%):       0.0000
    Fitting Condition:        1E-10

   => Auxiliary Basis Set <=

  Basis Set: (DEF2-TZVPPD AUX)
    Blend: DEF2-UNIVERSAL-JKFIT
    Number of shells: 37
    Number of basis functions: 113
    Number of Cartesian functions: 133
    Spherical Harmonics?: true
    Max angular momentum: 4

  Cached 100.0% of DFT collocation blocks in 0.347 [GiB].

  Minimum eigenvalue in the overlap matrix is 7.8812021163E-04.
  Reciprocal condition number of the overlap matrix is 1.2268631735E-04.
    Using symmetric orthogonalization.

  ==> Pre-Iterations <==

  SCF Guess: Superposition of Atomic Densities via on-the-fly atomic UHF (no occupation information).

   -------------------------
    Irrep   Nso     Nmo    
   -------------------------
     A         74      74 
   -------------------------
    Total      74      74
   -------------------------

  ==> Iterations <==

                           Total Energy        Delta E     RMS |[F,P]|

   @DF-UKS iter SAD:   -76.08031840200825   -7.60803e+01   0.00000e+00 
   @DF-UKS iter   1:   -76.27801403091472   -1.97696e-01   9.73962e-03 DIIS
   @DF-UKS iter   2:   -75.65428927881123    6.23725e-01   1.87770e-02 DIIS
   @DF-UKS iter   3:   -76.45680588120639   -8.02517e-01   9.52017e-04 DIIS
   @DF-UKS iter   4:   -76.45912034193189   -2.31446e-03   1.01016e-04 DIIS
   @DF-UKS iter   5:   -76.45914002666296   -1.96847e-05   2.04677e-05 DIIS
   @DF-UKS iter   6:   -76.45914082471256   -7.98050e-07   1.61197e-06 DIIS
   @DF-UKS iter   7:   -76.45914082882388   -4.11131e-09   1.16199e-07 DIIS
   @DF-UKS iter   8:   -76.45914082885781   -3.39355e-11   7.42146e-09 DIIS
   @DF-UKS iter   9:   -76.45914082885795   -1.42109e-13   3.69982e-10 DIIS
   @DF-UKS iter  10:   -76.45914082885801   -5.68434e-14   3.25597e-11 DIIS
  Energy and wave function converged.


  ==> Post-Iterations <==

   Electrons on quadrature grid:
      Nalpha   =    5.0000000031 ; deviation = 3.108e-09
      Nbeta    =    5.0000000031 ; deviation = 3.108e-09
      Ntotal   =   10.0000000062 ; deviation = 6.217e-09 

   @Spin Contamination Metric:  -2.486899575E-14
   @S^2 Expected:                0.000000000E+00
   @S^2 Observed:               -2.486899575E-14
   @S   Expected:                0.000000000E+00
   @S   Observed:                0.000000000E+00

    Orbital Energies [Eh]
    ---------------------

    Alpha Occupied:                                                       

       1A    -19.064970     2A     -0.978362     3A     -0.500624  
       4A     -0.370833     5A     -0.293116  

    Alpha Virtual:                                                        

       6A     -0.012230     7A      0.046495     8A      0.080046  
       9A      0.081773    10A      0.131238    11A      0.158702  
      12A      0.192397    13A      0.194785    14A      0.220133  
      15A      0.257452    16A      0.267982    17A      0.311739  
      18A      0.395987    19A      0.414696    20A      0.451833  
      21A      0.494368    22A      0.507448    23A      0.605338  
      24A      0.666736    25A      0.675740    26A      0.678041  
      27A      0.863236    28A      0.942103    29A      0.945592  
      30A      1.008757    31A      1.071862    32A      1.138944  
      33A      1.251297    34A      1.309959    35A      1.814278  
      36A      1.872035    37A      1.936286    38A      2.055809  
      39A      2.195283    40A      2.532896    41A      2.709943  
      42A      2.731306    43A      2.982260    44A      3.117846  
      45A      3.197205    46A      3.276303    47A      3.323515  
      48A      3.336227    49A      3.362111    50A      3.605539  
      51A      3.805825    52A      3.859815    53A      3.943143  
      54A      3.988523    55A      4.080444    56A      4.118340  
      57A      4.189121    58A      4.625184    59A      4.626979  
      60A      4.899912    61A      5.089950    62A      5.576311  
      63A      6.075576    64A      6.349695    65A      6.408641  
      66A      6.539171    67A      6.585497    68A      6.679207  
      69A      6.798710    70A      6.914134    71A      7.382475  
      72A      7.486332    73A      7.746431    74A     43.809546  

    Beta Occupied:                                                        

       1A    -19.064970     2A     -0.978362     3A     -0.500624  
       4A     -0.370833     5A     -0.293116  

    Beta Virtual:                                                         

       6A     -0.012230     7A      0.046495     8A      0.080046  
       9A      0.081773    10A      0.131238    11A      0.158702  
      12A      0.192397    13A      0.194785    14A      0.220133  
      15A      0.257452    16A      0.267982    17A      0.311739  
      18A      0.395987    19A      0.414696    20A      0.451833  
      21A      0.494368    22A      0.507448    23A      0.605338  
      24A      0.666736    25A      0.675740    26A      0.678041  
      27A      0.863236    28A      0.942103    29A      0.945592  
      30A      1.008757    31A      1.071862    32A      1.138944  
      33A      1.251297    34A      1.309959    35A      1.814278  
      36A      1.872035    37A      1.936286    38A      2.055809  
      39A      2.195283    40A      2.532896    41A      2.709943  
      42A      2.731306    43A      2.982260    44A      3.117846  
      45A      3.197205    46A      3.276303    47A      3.323515  
      48A      3.336227    49A      3.362111    50A      3.605539  
      51A      3.805825    52A      3.859815    53A      3.943143  
      54A      3.988523    55A      4.080444    56A      4.118340  
      57A      4.189121    58A      4.625184    59A      4.626979  
      60A      4.899912    61A      5.089950    62A      5.576311  
      63A      6.075576    64A      6.349695    65A      6.408641  
      66A      6.539171    67A      6.585497    68A      6.679207  
      69A      6.798710    70A      6.914134    71A      7.382475  
      72A      7.486332    73A      7.746431    74A     43.809546  

    Final Occupation by Irrep:
              A 
    DOCC [     5 ]
    SOCC [     0 ]

  @DF-UKS Final Energy:   -76.45914082885801

   => Energetics <=

    Nuclear Repulsion Energy =              8.8014655645634043
    One-Electron Energy =                -122.3530360269628972
    Two-Electron Energy =                  45.4971098847373199
    DFT Exchange-Correlation Energy =      -8.4046802511958330
    Empirical Dispersion Energy =           0.0000000000000000
    VV10 Nonlocal Energy =                  0.0000000000000000
    Total Energy =                        -76.4591408288580112

  UHF NO Occupations:
  HONO-2 :    3  A 2.0000000
  HONO-1 :    4  A 2.0000000
  HONO-0 :    5  A 2.0000000
  LUNO+0 :    6  A 0.0000000
  LUNO+1 :    7  A 0.0000000
  LUNO+2 :    8  A 0.0000000
  LUNO+3 :    9  A 0.0000000


Computation Completed


Properties will be evaluated at   0.000000,   0.000000,   0.000000 [a0]

Properties computed using the SCF density matrix

  Nuclear Dipole Moment: [e a0]
     X:     1.0191      Y:     0.0000      Z:     0.0000

  Electronic Dipole Moment: [e a0]
     X:    -0.2932      Y:     0.0000      Z:    -0.0000

  Dipole Moment: [e a0]
     X:     0.7259      Y:     0.0000      Z:    -0.0000     Total:     0.7259

  Dipole Moment: [D]
     X:     1.8450      Y:     0.0000      Z:    -0.0000     Total:     1.8450


*** tstop() called on ed11 at Sat Apr 16 15:08:01 2022
Module time:
	user time   =       9.07 seconds =       0.15 minutes
	system time =       0.07 seconds =       0.00 minutes
	total time  =          9 seconds =       0.15 minutes
Total time:
	user time   =      44.67 seconds =       0.74 minutes
	system time =       0.53 seconds =       0.01 minutes
	total time  =         45 seconds =       0.75 minutes

Scratch directory: /scratch/deprince/scratch/
   => Loading Basis Set <=

    Name: (DEF2-TZVPPD AUX)
    Role: JKFIT
    Keyword: DF_BASIS_SCF
    atoms 1   entry O          line   318 file /edfs/users/deprince/edeprince3/psi4/install/master/share/psi4/basis/def2-universal-jkfit.gbs 
    atoms 2-3 entry H          line    18 file /edfs/users/deprince/edeprince3/psi4/install/master/share/psi4/basis/def2-universal-jkfit.gbs 

   => Loading Basis Set <=

    Name: (DEF2-TZVPPD AUX)
    Role: RIFIT
    Keyword: DF_BASIS_CC
    atoms 1   entry O          line   333 file /edfs/users/deprince/edeprince3/psi4/install/master/share/psi4/basis/def2-tzvppd-ri.gbs 
    atoms 2-3 entry H          line    22 file /edfs/users/deprince/edeprince3/psi4/install/master/share/psi4/basis/def2-tzvppd-ri.gbs 


Reading options from the HILBERT block
Calling plugin hilbert.so.


    Molecular point group: c1
    Full point group: C2v

    Geometry (in Angstrom), charge = 0, multiplicity = 1:

       Center              X                  Y                   Z               Mass       
    ------------   -----------------  -----------------  -----------------  -----------------
         O           -0.068516219320     0.000000000000     0.000000000000    15.994914619570
         H            0.543701060715     0.000000000000    -0.790689573744     1.007825032230
         H            0.543701060715     0.000000000000     0.790689573744     1.007825032230

  -AO BASIS SET INFORMATION:
    Name                   = DEF2-TZVPPD
    Blend                  = DEF2-TZVPPD
    Total number of shells = 28
    Number of primitives   = 41
    Number of AO           = 82
    Number of SO           = 74
    Maximum AM             = 3
    Spherical Harmonics    = TRUE

  -Contraction Scheme:
    Atom   Type   All Primitives // Shells:
   ------ ------ --------------------------
       1     O     12s 7p 3d 1f // 6s 4p 3d 1f 
       2     H     5s 3p 1d // 3s 3p 1d 
       3     H     5s 3p 1d // 3s 3p 1d 

  ==> AO Basis Functions <==

    [ DEF2-TZVPPD ]
    spherical
    ****
    O   1
    S   6 1.00
                     27032.38263100           0.00021726
                      4052.38713920           0.00168387
                       922.32722710           0.00873956
                       261.24070989           0.03523997
                        85.35464135           0.11153519
                        31.03503524           0.25588954
    S   2 1.00
                        12.26086073           0.39768731
                         4.99870760           0.24627849
    S   1 1.00
                         1.17031082           1.00000000
    S   1 1.00
                         0.46474741           1.00000000
    S   1 1.00
                         0.18504536           1.00000000
    S   1 1.00
                         0.07028803           1.00000000
    P   4 1.00
                        63.27495480           0.00606851
                        14.62704938           0.04191258
                         4.45012235           0.16153841
                         1.52757996           0.35706951
    P   1 1.00
                         0.52935118           1.00000000
    P   1 1.00
                         0.17478421           1.00000000
    P   1 1.00
                         0.05111275           1.00000000
    D   1 1.00
                         2.31400000           1.00000000
    D   1 1.00
                         0.64500000           1.00000000
    D   1 1.00
                         0.14696477           1.00000000
    F   1 1.00
                         1.42800000           1.00000000
    ****
    H   2
    S   3 1.00
                        34.06134100           0.00602520
                         5.12357460           0.04502109
                         1.16466260           0.20189726
    S   1 1.00
                         0.32723041           1.00000000
    S   1 1.00
                         0.10307241           1.00000000
    P   1 1.00
                         1.40700000           1.00000000
    P   1 1.00
                         0.38800000           1.00000000
    P   1 1.00
                         0.09577413           1.00000000
    D   1 1.00
                         1.05700000           1.00000000
    ****
    H   3
    S   3 1.00
                        34.06134100           0.00602520
                         5.12357460           0.04502109
                         1.16466260           0.20189726
    S   1 1.00
                         0.32723041           1.00000000
    S   1 1.00
                         0.10307241           1.00000000
    P   1 1.00
                         1.40700000           1.00000000
    P   1 1.00
                         0.38800000           1.00000000
    P   1 1.00
                         0.09577413           1.00000000
    D   1 1.00
                         1.05700000           1.00000000
    ****



        *******************************************************
        *                                                     *
        *                                                     *
        *    Polaritonic UKS                                  *
        *                                                     *
        *                                                     *
        *******************************************************
    Molecular point group: c1
    Full point group: C2v

    Geometry (in Angstrom), charge = 0, multiplicity = 1:

       Center              X                  Y                   Z               Mass       
    ------------   -----------------  -----------------  -----------------  -----------------
         O           -0.068516219320     0.000000000000     0.000000000000    15.994914619570
         H            0.543701060715     0.000000000000    -0.790689573744     1.007825032230
         H            0.543701060715     0.000000000000     0.790689573744     1.007825032230

  -AO BASIS SET INFORMATION:
    Name                   = DEF2-TZVPPD
    Blend                  = DEF2-TZVPPD
    Total number of shells = 28
    Number of primitives   = 41
    Number of AO           = 82
    Number of SO           = 74
    Maximum AM             = 3
    Spherical Harmonics    = TRUE

  -Contraction Scheme:
    Atom   Type   All Primitives // Shells:
   ------ ------ --------------------------
       1     O     12s 7p 3d 1f // 6s 4p 3d 1f 
       2     H     5s 3p 1d // 3s 3p 1d 
       3     H     5s 3p 1d // 3s 3p 1d 

  ==> AO Basis Functions <==

    [ DEF2-TZVPPD ]
    spherical
    ****
    O   1
    S   6 1.00
                     27032.38263100           0.00021726
                      4052.38713920           0.00168387
                       922.32722710           0.00873956
                       261.24070989           0.03523997
                        85.35464135           0.11153519
                        31.03503524           0.25588954
    S   2 1.00
                        12.26086073           0.39768731
                         4.99870760           0.24627849
    S   1 1.00
                         1.17031082           1.00000000
    S   1 1.00
                         0.46474741           1.00000000
    S   1 1.00
                         0.18504536           1.00000000
    S   1 1.00
                         0.07028803           1.00000000
    P   4 1.00
                        63.27495480           0.00606851
                        14.62704938           0.04191258
                         4.45012235           0.16153841
                         1.52757996           0.35706951
    P   1 1.00
                         0.52935118           1.00000000
    P   1 1.00
                         0.17478421           1.00000000
    P   1 1.00
                         0.05111275           1.00000000
    D   1 1.00
                         2.31400000           1.00000000
    D   1 1.00
                         0.64500000           1.00000000
    D   1 1.00
                         0.14696477           1.00000000
    F   1 1.00
                         1.42800000           1.00000000
    ****
    H   2
    S   3 1.00
                        34.06134100           0.00602520
                         5.12357460           0.04502109
                         1.16466260           0.20189726
    S   1 1.00
                         0.32723041           1.00000000
    S   1 1.00
                         0.10307241           1.00000000
    P   1 1.00
                         1.40700000           1.00000000
    P   1 1.00
                         0.38800000           1.00000000
    P   1 1.00
                         0.09577413           1.00000000
    D   1 1.00
                         1.05700000           1.00000000
    ****
    H   3
    S   3 1.00
                        34.06134100           0.00602520
                         5.12357460           0.04502109
                         1.16466260           0.20189726
    S   1 1.00
                         0.32723041           1.00000000
    S   1 1.00
                         0.10307241           1.00000000
    P   1 1.00
                         1.40700000           1.00000000
    P   1 1.00
                         0.38800000           1.00000000
    P   1 1.00
                         0.09577413           1.00000000
    D   1 1.00
                         1.05700000           1.00000000
    ****

  ==> DFT Potential <==

   => LibXC <=

    Version 5.1.5
    S. Lehtola, C. Steigemann, M. J. Oliveira, and M. A. Marques, SoftwareX 7, 1 (2018) (10.1016/j.softx.2017.11.002)

   => Composite Functional: TPSSH <= 

    TPSSh Hyb-GGA Exchange-Correlation Functional

    V. N. Staroverov, G. E. Scuseria, J. Tao, and J. P. Perdew, J. Chem. Phys. 119, 12129 (2003) (10.1063/1.1626543)

    Deriv               =              1
    GGA                 =           TRUE
    Meta                =           TRUE

    Exchange Hybrid     =           TRUE
    MP2 Hybrid          =          FALSE

   => Exchange Functionals <=

    0.9000   Tao, Perdew, Staroverov & Scuseria

   => Exact (HF) Exchange <=

    0.1000               HF 

   => Correlation Functionals <=

    1.0000   Tao, Perdew, Staroverov & Scuseria

   => LibXC Density Thresholds  <==

    XC_HYB_MGGA_XC_TPSSH:  1.00E-15 

   => Molecular Quadrature <=

    Radial Scheme          =       TREUTLER
    Pruning Scheme         =           NONE
    Nuclear Scheme         =       TREUTLER

    BS radius alpha        =              1
    Pruning alpha          =              1
    Radial Points          =             75
    Spherical Points       =            302
    Total Points           =          66726
    Total Blocks           =            554
    Max Points             =            255
    Max Functions          =             74
    Weights Tolerance      =       1.00E-15


    No. basis functions:               74
    No. auxiliary basis functions:    113
    No. alpha electrons:                5
    No. beta electrons:                 5
    e_convergence:              1.000e-10
    d_convergence:              1.000e-10
    maxiter:                          500



    Guess energy:      -73.581996027695

    ==>  Begin SCF Iterations <==

     Iter               energy                   dE          RMS |[F,P]| 
        0     -76.408014659191      -2.826018631496       0.000532001744
        1     -76.409181294711      -0.001166635521       0.000558048020
        2     -76.408028964196       0.001152330515       0.000973261458
        3     -76.409786191950      -0.001757227754       0.000009684121
        4     -76.409786398253      -0.000000206302       0.000000867893
        5     -76.409786399910      -0.000000001657       0.000000129511
        6     -76.409786399946      -0.000000000036       0.000000013690
        7     -76.409786399946      -0.000000000000       0.000000001969
        8     -76.409786399946       0.000000000000       0.000000000059

    SCF iterations converged!

    * Polaritonic UKS total energy:     -76.409786399946

    dipole self energy (one electron):       0.074272900515
    dipole self energy (two electron):      -0.026391984182
    dipole self energy (total):              0.047880916333


    ==> lambda-free contributions to dipole self energy <== 

    one electron (xx):       5.724581242665
    one electron (xy):      -0.000000000000
    one electron (xz):       0.000000000000
    one electron (yy):       7.637935999283
    one electron (yz):       0.000000000000
    one electron (zz):       6.641117898055

    two electron (xx):      -1.798237471036
    two electron (xy):      -0.000000000000
    two electron (xz):      -0.000000000000
    two electron (yy):      -2.852807277416
    two electron (yz):      -0.000000000000
    two electron (zz):      -2.359841574838

 #  #
 Irrep: 1
      1:  -19.042949256933472
      2:   -0.969973027506851
      3:   -0.483422668473321
      4:   -0.353318583894211
      5:   -0.274568367085552
      6:    0.046265430296572
      7:    0.106125753436096
      8:    0.147618868755037
      9:    0.204151979119876
     10:    0.228760345077889
     11:    0.241543696324450
     12:    0.248241205027679
     13:    0.302421438095855
     14:    0.317727725048885
     15:    0.363363429168418
     16:    0.383816554846630
     17:    0.400757160297531
     18:    0.494081590674518
     19:    0.506163029284062
     20:    0.533211284550652
     21:    0.552562247655264
     22:    0.611924611667679
     23:    0.671715166615217
     24:    0.720030692483955
     25:    0.724153887933663
     26:    0.748394466143208
     27:    0.909502351818137
     28:    0.971014666341405
     29:    1.003160783363919
     30:    1.039343458587654
     31:    1.132971023816386
     32:    1.184638023635423
     33:    1.301376376544857
     34:    1.360647107542398
     35:    1.840291716195441
     36:    1.893616639915910
     37:    1.968461805995713
     38:    2.088112235425451
     39:    2.228993175122408
     40:    2.566572885775830
     41:    2.739475324630881
     42:    2.754652426444731
     43:    3.012459551466483
     44:    3.141641617594499
     45:    3.218529175515683
     46:    3.302279229738134
     47:    3.353201200512416
     48:    3.363837880875634
     49:    3.384554960104357
     50:    3.631101767211759
     51:    3.826832071760229
     52:    3.882391931292915
     53:    3.975683054412705
     54:    4.013849193083201
     55:    4.101551042159399
     56:    4.144614413108948
     57:    4.219978474223179
     58:    4.649781055909408
     59:    4.650850096237200
     60:    4.924294424846350
     61:    5.115626248184610
     62:    5.597735143295392
     63:    6.098740819138887
     64:    6.369749944600293
     65:    6.427298085197178
     66:    6.559308791617657
     67:    6.607320598767045
     68:    6.705671874922150
     69:    6.819192586955075
     70:    6.934243574176521
     71:    7.406346498011673
     72:    7.508984113161087
     73:    7.769054963800192
     74:   43.832163137914961


 #  #
 Irrep: 1
      1:  -19.042949256933490
      2:   -0.969973027506880
      3:   -0.483422668473330
      4:   -0.353318583894212
      5:   -0.274568367085553
      6:    0.046265430296563
      7:    0.106125753436095
      8:    0.147618868755039
      9:    0.204151979119879
     10:    0.228760345077904
     11:    0.241543696324450
     12:    0.248241205027677
     13:    0.302421438095864
     14:    0.317727725048919
     15:    0.363363429168332
     16:    0.383816554846658
     17:    0.400757160297532
     18:    0.494081590674482
     19:    0.506163029284062
     20:    0.533211284550731
     21:    0.552562247655263
     22:    0.611924611667704
     23:    0.671715166615232
     24:    0.720030692483940
     25:    0.724153887933652
     26:    0.748394466143292
     27:    0.909502351818041
     28:    0.971014666341400
     29:    1.003160783364193
     30:    1.039343458587648
     31:    1.132971023816385
     32:    1.184638023635375
     33:    1.301376376544851
     34:    1.360647107542510
     35:    1.840291716195454
     36:    1.893616639915906
     37:    1.968461805995712
     38:    2.088112235425539
     39:    2.228993175122362
     40:    2.566572885775797
     41:    2.739475324630904
     42:    2.754652426444738
     43:    3.012459551466583
     44:    3.141641617594505
     45:    3.218529175515682
     46:    3.302279229738127
     47:    3.353201200512448
     48:    3.363837880875634
     49:    3.384554960104365
     50:    3.631101767211758
     51:    3.826832071760237
     52:    3.882391931292924
     53:    3.975683054412702
     54:    4.013849193083198
     55:    4.101551042159408
     56:    4.144614413108971
     57:    4.219978474223174
     58:    4.649781055909409
     59:    4.650850096237201
     60:    4.924294424846360
     61:    5.115626248184540
     62:    5.597735143295397
     63:    6.098740819138888
     64:    6.369749944600296
     65:    6.427298085197175
     66:    6.559308791617662
     67:    6.607320598767047
     68:    6.705671874922130
     69:    6.819192586955077
     70:    6.934243574176515
     71:    7.406346498011675
     72:    7.508984113161115
     73:    7.769054963800166
     74:   43.832163137914975

    QEDFT total energy (yzx)..............................................................PASSED

    Psi4 stopped on: Saturday, 16 April 2022 03:08PM
    Psi4 wall time for execution: 0:00:55.98

*** Psi4 exiting successfully. Buy a developer a beer!
