
    -----------------------------------------------------------------------
          Psi4: An Open-Source Ab Initio Electronic Structure Package
                               Psi4 1.4a2.dev397 

                         Git: Rev {master} b3df9b2 dirty


    R. M. Parrish, L. A. Burns, D. G. A. Smith, A. C. Simmonett,
    A. E. DePrince III, E. G. Hohenstein, U. Bozkaya, A. Yu. Sokolov,
    R. Di Remigio, R. M. Richard, J. F. Gonthier, A. M. James,
    H. R. McAlexander, A. Kumar, M. Saitow, X. Wang, B. P. Pritchard,
    P. Verma, H. F. Schaefer III, K. Patkowski, R. A. King, E. F. Valeev,
    F. A. Evangelista, J. M. Turney, T. D. Crawford, and C. D. Sherrill,
    J. Chem. Theory Comput. 13(7) pp 3185--3197 (2017).
    (doi: 10.1021/acs.jctc.7b00174)


                         Additional Contributions by
    P. Kraus, H. Kruse, M. H. Lechner, M. C. Schieber, R. A. Shaw,
    A. Alenaizan, R. Galvelis, Z. L. Glick, S. Lehtola, and J. P. Misiewicz

    -----------------------------------------------------------------------


    Psi4 started on: Thursday, 03 September 2020 08:39AM

    Process ID: 34853
    Host:       illegally-used-at.fsu
    PSIDATADIR: /Users/deprince/edeprince3/psi4/install/master/share/psi4
    Memory:     500.0 MiB
    Threads:    1
    
  ==> Input File <==

--------------------------------------------------------------------------
# PYTHONPATH must include directory above plugin directory.
#     Define either externally or here, then import plugin.
sys.path.insert(0, '../../..')
import hilbert

molecule bodipy {

 0 1
 H  0.000000000000  0.510781068891 -4.463503536214 
 H -0.000000000000  0.510781068891  4.463503536214 
 H  0.000000000000  2.685243799000 -2.846156253165 
 H  0.000000000000 -1.651573074214 -2.804615540994 
 H -0.000000000000 -1.651573074214  2.804615540994 
 H -0.000000000000  2.685243799000  2.846156253165 
 H  0.000000000000  2.927100007706 -0.000000000000 
 C  0.000000000000  0.529718349257 -3.382475237561 
 C -0.000000000000  0.529718349257  3.382475237561 
 C  0.000000000000  1.643095591630 -2.554386695392 
 C -0.000000000000  1.643095591630  2.554386695392 
 C  0.000000000000 -0.602958054613 -2.538094682553 
 C -0.000000000000 -0.602958054613  2.538094682553 
 C  0.000000000000  1.166008889859 -1.216987365738 
 C -0.000000000000  1.166008889859  1.216987365738 
 C -0.000000000000  1.841119066973  0.000000000000 
 N  0.000000000000 -0.228224731897 -1.251887963894 
 N -0.000000000000 -0.228224731897  1.251887963894 
 B  0.000000000000 -1.183680802631  0.000000000000 
 F  1.143257644405 -1.957903053471  0.000000000000 
 F -1.143257644405 -1.957903053471 -0.000000000000 

no_reorient
nocom
symmetry c1
}

set {
  basis 6-31g 
  scf_type df 
  e_convergence 1e-12 
  d_convergence 1e-12 
} 

set hilbert {
  n_photon_states    20 
  cavity_frequency   [0.122939448091,0.122939448091,0.122939448091] 
  cavity_tdm         [192.0,192.0,192.0] 
  cavity_coordinates [0.0,0.0,204.090406767] 
}

energy('polaritonic-rhf') 
--------------------------------------------------------------------------

Scratch directory: /tmp/

*** tstart() called on illegally-used-at.fsu
*** at Thu Sep  3 08:39:01 2020

   => Loading Basis Set <=

    Name: 6-31G
    Role: ORBITAL
    Keyword: BASIS
    atoms 1-7   entry H          line    26 file /Users/deprince/edeprince3/psi4/install/master/share/psi4/basis/6-31g.gbs 
    atoms 8-16  entry C          line    87 file /Users/deprince/edeprince3/psi4/install/master/share/psi4/basis/6-31g.gbs 
    atoms 17-18 entry N          line   102 file /Users/deprince/edeprince3/psi4/install/master/share/psi4/basis/6-31g.gbs 
    atoms 19    entry B          line    72 file /Users/deprince/edeprince3/psi4/install/master/share/psi4/basis/6-31g.gbs 
    atoms 20-21 entry F          line   132 file /Users/deprince/edeprince3/psi4/install/master/share/psi4/basis/6-31g.gbs 


         ---------------------------------------------------------
                                   SCF
               by Justin Turney, Rob Parrish, Andy Simmonett
                          and Daniel G. A. Smith
                              RHF Reference
                        1 Threads,    500 MiB Core
         ---------------------------------------------------------

  ==> Geometry <==

    Molecular point group: c1
    Full point group: C2v

    Geometry (in Angstrom), charge = 0, multiplicity = 1:

       Center              X                  Y                   Z               Mass       
    ------------   -----------------  -----------------  -----------------  -----------------
         H            0.000000000000     0.510781068891    -4.463503536214     1.007825032230
         H            0.000000000000     0.510781068891     4.463503536214     1.007825032230
         H            0.000000000000     2.685243799000    -2.846156253165     1.007825032230
         H            0.000000000000    -1.651573074214    -2.804615540994     1.007825032230
         H            0.000000000000    -1.651573074214     2.804615540994     1.007825032230
         H            0.000000000000     2.685243799000     2.846156253165     1.007825032230
         H            0.000000000000     2.927100007706     0.000000000000     1.007825032230
         C            0.000000000000     0.529718349257    -3.382475237561    12.000000000000
         C            0.000000000000     0.529718349257     3.382475237561    12.000000000000
         C            0.000000000000     1.643095591630    -2.554386695392    12.000000000000
         C            0.000000000000     1.643095591630     2.554386695392    12.000000000000
         C            0.000000000000    -0.602958054613    -2.538094682553    12.000000000000
         C            0.000000000000    -0.602958054613     2.538094682553    12.000000000000
         C            0.000000000000     1.166008889859    -1.216987365738    12.000000000000
         C            0.000000000000     1.166008889859     1.216987365738    12.000000000000
         C            0.000000000000     1.841119066973     0.000000000000    12.000000000000
         N            0.000000000000    -0.228224731897    -1.251887963894    14.003074004430
         N            0.000000000000    -0.228224731897     1.251887963894    14.003074004430
         B            0.000000000000    -1.183680802631     0.000000000000    11.009305360000
         F            1.143257644405    -1.957903053471     0.000000000000    18.998403162730
         F           -1.143257644405    -1.957903053471     0.000000000000    18.998403162730

  Running in c1 symmetry.

  Rotational constants: A =      0.04268  B =      0.02141  C =      0.01557 [cm^-1]
  Rotational constants: A =   1279.57991  B =    641.96974  C =    466.70665 [MHz]
  Nuclear repulsion =  859.463505022029153

  Charge       = 0
  Multiplicity = 1
  Electrons    = 98
  Nalpha       = 49
  Nbeta        = 49

  ==> Algorithm <==

  SCF Algorithm Type is DF.
  DIIS enabled.
  MOM disabled.
  Fractional occupation disabled.
  Guess Type is SAD.
  Energy threshold   = 1.00e-12
  Density threshold  = 1.00e-12
  Integral threshold = 0.00e+00

  ==> Primary Basis <==

  Basis Set: 6-31G
    Blend: 6-31G
    Number of shells: 84
    Number of basis function: 140
    Number of Cartesian functions: 140
    Spherical Harmonics?: false
    Max angular momentum: 1

   => Loading Basis Set <=

    Name: (6-31G AUX)
    Role: JKFIT
    Keyword: DF_BASIS_SCF
    atoms 1-7   entry H          line    51 file /Users/deprince/edeprince3/psi4/install/master/share/psi4/basis/cc-pvdz-jkfit.gbs 
    atoms 8-16  entry C          line   121 file /Users/deprince/edeprince3/psi4/install/master/share/psi4/basis/cc-pvdz-jkfit.gbs 
    atoms 17-18 entry N          line   171 file /Users/deprince/edeprince3/psi4/install/master/share/psi4/basis/cc-pvdz-jkfit.gbs 
    atoms 19    entry B          line    71 file /Users/deprince/edeprince3/psi4/install/master/share/psi4/basis/cc-pvdz-jkfit.gbs 
    atoms 20-21 entry F          line   271 file /Users/deprince/edeprince3/psi4/install/master/share/psi4/basis/cc-pvdz-jkfit.gbs 

  ==> Pre-Iterations <==

   -------------------------------------------------------
    Irrep   Nso     Nmo     Nalpha   Nbeta   Ndocc  Nsocc
   -------------------------------------------------------
     A        140     140       0       0       0       0
   -------------------------------------------------------
    Total     140     140      49      49      49       0
   -------------------------------------------------------

  ==> Integral Setup <==

  ==> DiskDFJK: Density-Fitted J/K Matrices <==

    J tasked:                  Yes
    K tasked:                  Yes
    wK tasked:                  No
    OpenMP threads:              1
    Integrals threads:           1
    Memory [MiB]:              375
    Algorithm:                Core
    Integral Cache:           SAVE
    Schwarz Cutoff:          1E-12
    Fitting Condition:       1E-10

   => Auxiliary Basis Set <=

  Basis Set: (6-31G AUX)
    Blend: CC-PVDZ-JKFIT
    Number of shells: 399
    Number of basis function: 1309
    Number of Cartesian functions: 1309
    Spherical Harmonics?: false
    Max angular momentum: 3

  Minimum eigenvalue in the overlap matrix is 8.5197723871E-04.
  Reciprocal condition number of the overlap matrix is 1.4841180816E-04.
    Using symmetric orthogonalization.
  SCF Guess: Superposition of Atomic Densities via on-the-fly atomic UHF.

  ==> Iterations <==

                           Total Energy        Delta E     RMS |[F,P]|

   @DF-RHF iter SAD:  -676.67542315285993   -6.76675e+02   0.00000e+00 
   @DF-RHF iter   1:  -677.10941284988303   -4.33990e-01   3.83275e-03 DIIS
   @DF-RHF iter   2:  -677.24628529365373   -1.36872e-01   1.84789e-03 DIIS
   @DF-RHF iter   3:  -677.27006292317560   -2.37776e-02   3.51455e-04 DIIS
   @DF-RHF iter   4:  -677.27191615036725   -1.85323e-03   1.08682e-04 DIIS
   @DF-RHF iter   5:  -677.27209174633913   -1.75596e-04   4.36659e-05 DIIS
   @DF-RHF iter   6:  -677.27213832014058   -4.65738e-05   1.98565e-05 DIIS
   @DF-RHF iter   7:  -677.27215215695401   -1.38368e-05   5.86926e-06 DIIS
   @DF-RHF iter   8:  -677.27215359239369   -1.43544e-06   1.79137e-06 DIIS
   @DF-RHF iter   9:  -677.27215366196981   -6.95761e-08   6.20246e-07 DIIS
   @DF-RHF iter  10:  -677.27215367305416   -1.10844e-08   2.15118e-07 DIIS
   @DF-RHF iter  11:  -677.27215367430676   -1.25260e-09   9.94328e-08 DIIS
   @DF-RHF iter  12:  -677.27215367462270   -3.15936e-10   3.78009e-08 DIIS
   @DF-RHF iter  13:  -677.27215367467568   -5.29781e-11   1.32641e-08 DIIS
   @DF-RHF iter  14:  -677.27215367468227   -6.59384e-12   4.39125e-09 DIIS
   @DF-RHF iter  15:  -677.27215367468239   -1.13687e-13   1.10010e-09 DIIS
   @DF-RHF iter  16:  -677.27215367468204    3.41061e-13   4.15743e-10 DIIS
   @DF-RHF iter  17:  -677.27215367468148    5.68434e-13   1.72317e-10 DIIS
   @DF-RHF iter  18:  -677.27215367468159   -1.13687e-13   6.84139e-11 DIIS
   @DF-RHF iter  19:  -677.27215367468136    2.27374e-13   2.04160e-11 DIIS
   @DF-RHF iter  20:  -677.27215367468148   -1.13687e-13   7.86581e-12 DIIS
   @DF-RHF iter  21:  -677.27215367468170   -2.27374e-13   3.02467e-12 DIIS
   @DF-RHF iter  22:  -677.27215367468159    1.13687e-13   8.80293e-13 DIIS
  Energy and wave function converged.


  ==> Post-Iterations <==

    Orbital Energies [Eh]
    ---------------------

    Doubly Occupied:                                                      

       1A    -26.229722     2A    -26.229717     3A    -15.612576  
       4A    -15.612573     5A    -11.322396     6A    -11.308131  
       7A    -11.308127     8A    -11.290536     9A    -11.290497  
      10A    -11.274791    11A    -11.274790    12A    -11.247044  
      13A    -11.247043    14A     -7.711825    15A     -1.563155  
      16A     -1.525392    17A     -1.332233    18A     -1.311516  
      19A     -1.114705    20A     -1.085214    21A     -1.071021  
      22A     -1.002217    23A     -0.922186    24A     -0.834842  
      25A     -0.815007    26A     -0.803673    27A     -0.794990  
      28A     -0.747872    29A     -0.712048    30A     -0.709280  
      31A     -0.675371    32A     -0.656288    33A     -0.646894  
      34A     -0.614306    35A     -0.613310    36A     -0.601619  
      37A     -0.596483    38A     -0.583005    39A     -0.577070  
      40A     -0.573790    41A     -0.559021    42A     -0.558863  
      43A     -0.557142    44A     -0.536269    45A     -0.510708  
      46A     -0.413363    47A     -0.375831    48A     -0.368653  
      49A     -0.287848  

    Virtual:                                                              

      50A      0.002200    51A      0.174408    52A      0.203488  
      53A      0.227793    54A      0.229496    55A      0.252717  
      56A      0.259414    57A      0.287137    58A      0.292223  
      59A      0.292989    60A      0.298478    61A      0.301590  
      62A      0.351904    63A      0.357829    64A      0.382934  
      65A      0.395464    66A      0.424030    67A      0.438706  
      68A      0.443189    69A      0.449328    70A      0.486958  
      71A      0.542831    72A      0.573186    73A      0.589083  
      74A      0.595112    75A      0.638126    76A      0.655631  
      77A      0.679903    78A      0.703633    79A      0.706629  
      80A      0.726658    81A      0.759622    82A      0.762132  
      83A      0.791064    84A      0.800170    85A      0.804644  
      86A      0.822268    87A      0.822320    88A      0.823355  
      89A      0.832209    90A      0.839610    91A      0.842310  
      92A      0.872497    93A      0.889868    94A      0.891737  
      95A      0.901388    96A      0.923100    97A      0.954718  
      98A      0.958827    99A      0.969622   100A      1.060966  
     101A      1.090460   102A      1.105205   103A      1.113425  
     104A      1.117883   105A      1.118867   106A      1.130790  
     107A      1.134194   108A      1.150403   109A      1.169239  
     110A      1.178195   111A      1.182386   112A      1.210221  
     113A      1.213460   114A      1.244036   115A      1.275794  
     116A      1.278342   117A      1.341354   118A      1.347093  
     119A      1.425678   120A      1.442575   121A      1.462878  
     122A      1.539454   123A      1.577036   124A      1.589843  
     125A      1.650260   126A      1.662670   127A      1.687224  
     128A      1.688945   129A      1.751370   130A      1.777281  
     131A      1.794396   132A      1.868711   133A      1.893047  
     134A      1.946381   135A      1.995460   136A      2.077298  
     137A      2.096825   138A      2.129725   139A      2.456899  
     140A      2.764400  

    Final Occupation by Irrep:
              A 
    DOCC [    49 ]

  @DF-RHF Final Energy:  -677.27215367468159

   => Energetics <=

    Nuclear Repulsion Energy =            859.4635050220291532
    One-Electron Energy =               -2634.2494131096336787
    Two-Electron Energy =                1097.5137544129229354
    Total Energy =                       -677.2721536746817037

Computation Completed


Properties will be evaluated at   0.000000,   0.000000,   0.000000 [a0]

Properties computed using the SCF density matrix

  Nuclear Dipole Moment: [e a0]
     X:     0.0000      Y:    10.4640      Z:     0.0000

  Electronic Dipole Moment: [e a0]
     X:     0.0000      Y:    -8.2894      Z:    -0.0000

  Dipole Moment: [e a0]
     X:     0.0000      Y:     2.1746      Z:    -0.0000     Total:     2.1746

  Dipole Moment: [D]
     X:     0.0000      Y:     5.5272      Z:    -0.0000     Total:     5.5272


*** tstop() called on illegally-used-at.fsu at Thu Sep  3 08:39:23 2020
Module time:
	user time   =      21.02 seconds =       0.35 minutes
	system time =       0.85 seconds =       0.01 minutes
	total time  =         22 seconds =       0.37 minutes
Total time:
	user time   =      21.02 seconds =       0.35 minutes
	system time =       0.85 seconds =       0.01 minutes
	total time  =         22 seconds =       0.37 minutes

Reading options from the HILBERT block
Calling plugin hilbert.so.


    Molecular point group: c1
    Full point group: C2v

    Geometry (in Angstrom), charge = 0, multiplicity = 1:

       Center              X                  Y                   Z               Mass       
    ------------   -----------------  -----------------  -----------------  -----------------
         H            0.000000000000     0.510781068891    -4.463503536214     1.007825032230
         H            0.000000000000     0.510781068891     4.463503536214     1.007825032230
         H            0.000000000000     2.685243799000    -2.846156253165     1.007825032230
         H            0.000000000000    -1.651573074214    -2.804615540994     1.007825032230
         H            0.000000000000    -1.651573074214     2.804615540994     1.007825032230
         H            0.000000000000     2.685243799000     2.846156253165     1.007825032230
         H            0.000000000000     2.927100007706     0.000000000000     1.007825032230
         C            0.000000000000     0.529718349257    -3.382475237561    12.000000000000
         C            0.000000000000     0.529718349257     3.382475237561    12.000000000000
         C            0.000000000000     1.643095591630    -2.554386695392    12.000000000000
         C            0.000000000000     1.643095591630     2.554386695392    12.000000000000
         C            0.000000000000    -0.602958054613    -2.538094682553    12.000000000000
         C            0.000000000000    -0.602958054613     2.538094682553    12.000000000000
         C            0.000000000000     1.166008889859    -1.216987365738    12.000000000000
         C            0.000000000000     1.166008889859     1.216987365738    12.000000000000
         C            0.000000000000     1.841119066973     0.000000000000    12.000000000000
         N            0.000000000000    -0.228224731897    -1.251887963894    14.003074004430
         N            0.000000000000    -0.228224731897     1.251887963894    14.003074004430
         B            0.000000000000    -1.183680802631     0.000000000000    11.009305360000
         F            1.143257644405    -1.957903053471     0.000000000000    18.998403162730
         F           -1.143257644405    -1.957903053471     0.000000000000    18.998403162730

  -AO BASIS SET INFORMATION:
    Name                   = 6-31G
    Blend                  = 6-31G
    Total number of shells = 84
    Number of primitives   = 224
    Number of AO           = 140
    Number of SO           = 140
    Maximum AM             = 1
    Spherical Harmonics    = FALSE

  -Contraction Scheme:
    Atom   Type   All Primitives // Shells:
   ------ ------ --------------------------
       1     H     4s // 2s 
       2     H     4s // 2s 
       3     H     4s // 2s 
       4     H     4s // 2s 
       5     H     4s // 2s 
       6     H     4s // 2s 
       7     H     4s // 2s 
       8     C     10s 4p // 3s 2p 
       9     C     10s 4p // 3s 2p 
      10     C     10s 4p // 3s 2p 
      11     C     10s 4p // 3s 2p 
      12     C     10s 4p // 3s 2p 
      13     C     10s 4p // 3s 2p 
      14     C     10s 4p // 3s 2p 
      15     C     10s 4p // 3s 2p 
      16     C     10s 4p // 3s 2p 
      17     N     10s 4p // 3s 2p 
      18     N     10s 4p // 3s 2p 
      19     B     10s 4p // 3s 2p 
      20     F     10s 4p // 3s 2p 
      21     F     10s 4p // 3s 2p 

  ==> AO Basis Functions <==

    [ 6-31G ]
    cartesian
    ****
    H   1
    S   3 1.00
                        18.73113700           0.03349460
                         2.82539370           0.23472695
                         0.64012170           0.81375733
    S   1 1.00
                         0.16127780           1.00000000
    ****
    H   2
    S   3 1.00
                        18.73113700           0.03349460
                         2.82539370           0.23472695
                         0.64012170           0.81375733
    S   1 1.00
                         0.16127780           1.00000000
    ****
    H   3
    S   3 1.00
                        18.73113700           0.03349460
                         2.82539370           0.23472695
                         0.64012170           0.81375733
    S   1 1.00
                         0.16127780           1.00000000
    ****
    H   4
    S   3 1.00
                        18.73113700           0.03349460
                         2.82539370           0.23472695
                         0.64012170           0.81375733
    S   1 1.00
                         0.16127780           1.00000000
    ****
    H   5
    S   3 1.00
                        18.73113700           0.03349460
                         2.82539370           0.23472695
                         0.64012170           0.81375733
    S   1 1.00
                         0.16127780           1.00000000
    ****
    H   6
    S   3 1.00
                        18.73113700           0.03349460
                         2.82539370           0.23472695
                         0.64012170           0.81375733
    S   1 1.00
                         0.16127780           1.00000000
    ****
    H   7
    S   3 1.00
                        18.73113700           0.03349460
                         2.82539370           0.23472695
                         0.64012170           0.81375733
    S   1 1.00
                         0.16127780           1.00000000
    ****
    C   8
    S   6 1.00
                      3047.52490000           0.00183470
                       457.36951000           0.01403730
                       103.94869000           0.06884260
                        29.21015500           0.23218440
                         9.28666300           0.46794130
                         3.16392700           0.36231200
    S   3 1.00
                         7.86827240          -0.11933240
                         1.88128850          -0.16085420
                         0.54424930           1.14345640
    P   3 1.00
                         7.86827240           0.06899910
                         1.88128850           0.31642400
                         0.54424930           0.74430830
    S   1 1.00
                         0.16871440           1.00000000
    P   1 1.00
                         0.16871440           1.00000000
    ****
    C   9
    S   6 1.00
                      3047.52490000           0.00183470
                       457.36951000           0.01403730
                       103.94869000           0.06884260
                        29.21015500           0.23218440
                         9.28666300           0.46794130
                         3.16392700           0.36231200
    S   3 1.00
                         7.86827240          -0.11933240
                         1.88128850          -0.16085420
                         0.54424930           1.14345640
    P   3 1.00
                         7.86827240           0.06899910
                         1.88128850           0.31642400
                         0.54424930           0.74430830
    S   1 1.00
                         0.16871440           1.00000000
    P   1 1.00
                         0.16871440           1.00000000
    ****
    C  10
    S   6 1.00
                      3047.52490000           0.00183470
                       457.36951000           0.01403730
                       103.94869000           0.06884260
                        29.21015500           0.23218440
                         9.28666300           0.46794130
                         3.16392700           0.36231200
    S   3 1.00
                         7.86827240          -0.11933240
                         1.88128850          -0.16085420
                         0.54424930           1.14345640
    P   3 1.00
                         7.86827240           0.06899910
                         1.88128850           0.31642400
                         0.54424930           0.74430830
    S   1 1.00
                         0.16871440           1.00000000
    P   1 1.00
                         0.16871440           1.00000000
    ****
    C  11
    S   6 1.00
                      3047.52490000           0.00183470
                       457.36951000           0.01403730
                       103.94869000           0.06884260
                        29.21015500           0.23218440
                         9.28666300           0.46794130
                         3.16392700           0.36231200
    S   3 1.00
                         7.86827240          -0.11933240
                         1.88128850          -0.16085420
                         0.54424930           1.14345640
    P   3 1.00
                         7.86827240           0.06899910
                         1.88128850           0.31642400
                         0.54424930           0.74430830
    S   1 1.00
                         0.16871440           1.00000000
    P   1 1.00
                         0.16871440           1.00000000
    ****
    C  12
    S   6 1.00
                      3047.52490000           0.00183470
                       457.36951000           0.01403730
                       103.94869000           0.06884260
                        29.21015500           0.23218440
                         9.28666300           0.46794130
                         3.16392700           0.36231200
    S   3 1.00
                         7.86827240          -0.11933240
                         1.88128850          -0.16085420
                         0.54424930           1.14345640
    P   3 1.00
                         7.86827240           0.06899910
                         1.88128850           0.31642400
                         0.54424930           0.74430830
    S   1 1.00
                         0.16871440           1.00000000
    P   1 1.00
                         0.16871440           1.00000000
    ****
    C  13
    S   6 1.00
                      3047.52490000           0.00183470
                       457.36951000           0.01403730
                       103.94869000           0.06884260
                        29.21015500           0.23218440
                         9.28666300           0.46794130
                         3.16392700           0.36231200
    S   3 1.00
                         7.86827240          -0.11933240
                         1.88128850          -0.16085420
                         0.54424930           1.14345640
    P   3 1.00
                         7.86827240           0.06899910
                         1.88128850           0.31642400
                         0.54424930           0.74430830
    S   1 1.00
                         0.16871440           1.00000000
    P   1 1.00
                         0.16871440           1.00000000
    ****
    C  14
    S   6 1.00
                      3047.52490000           0.00183470
                       457.36951000           0.01403730
                       103.94869000           0.06884260
                        29.21015500           0.23218440
                         9.28666300           0.46794130
                         3.16392700           0.36231200
    S   3 1.00
                         7.86827240          -0.11933240
                         1.88128850          -0.16085420
                         0.54424930           1.14345640
    P   3 1.00
                         7.86827240           0.06899910
                         1.88128850           0.31642400
                         0.54424930           0.74430830
    S   1 1.00
                         0.16871440           1.00000000
    P   1 1.00
                         0.16871440           1.00000000
    ****
    C  15
    S   6 1.00
                      3047.52490000           0.00183470
                       457.36951000           0.01403730
                       103.94869000           0.06884260
                        29.21015500           0.23218440
                         9.28666300           0.46794130
                         3.16392700           0.36231200
    S   3 1.00
                         7.86827240          -0.11933240
                         1.88128850          -0.16085420
                         0.54424930           1.14345640
    P   3 1.00
                         7.86827240           0.06899910
                         1.88128850           0.31642400
                         0.54424930           0.74430830
    S   1 1.00
                         0.16871440           1.00000000
    P   1 1.00
                         0.16871440           1.00000000
    ****
    C  16
    S   6 1.00
                      3047.52490000           0.00183470
                       457.36951000           0.01403730
                       103.94869000           0.06884260
                        29.21015500           0.23218440
                         9.28666300           0.46794130
                         3.16392700           0.36231200
    S   3 1.00
                         7.86827240          -0.11933240
                         1.88128850          -0.16085420
                         0.54424930           1.14345640
    P   3 1.00
                         7.86827240           0.06899910
                         1.88128850           0.31642400
                         0.54424930           0.74430830
    S   1 1.00
                         0.16871440           1.00000000
    P   1 1.00
                         0.16871440           1.00000000
    ****
    N  17
    S   6 1.00
                      4173.51100000           0.00183480
                       627.45790000           0.01399500
                       142.90210000           0.06858700
                        40.23433000           0.23224100
                        12.82021000           0.46907000
                         4.39043700           0.36045500
    S   3 1.00
                        11.62635800          -0.11496100
                         2.71628000          -0.16911800
                         0.77221800           1.14585200
    P   3 1.00
                        11.62635800           0.06758000
                         2.71628000           0.32390700
                         0.77221800           0.74089500
    S   1 1.00
                         0.21203130           1.00000000
    P   1 1.00
                         0.21203130           1.00000000
    ****
    N  18
    S   6 1.00
                      4173.51100000           0.00183480
                       627.45790000           0.01399500
                       142.90210000           0.06858700
                        40.23433000           0.23224100
                        12.82021000           0.46907000
                         4.39043700           0.36045500
    S   3 1.00
                        11.62635800          -0.11496100
                         2.71628000          -0.16911800
                         0.77221800           1.14585200
    P   3 1.00
                        11.62635800           0.06758000
                         2.71628000           0.32390700
                         0.77221800           0.74089500
    S   1 1.00
                         0.21203130           1.00000000
    P   1 1.00
                         0.21203130           1.00000000
    ****
    B  19
    S   6 1.00
                      2068.88230000           0.00186630
                       310.64957000           0.01425150
                        70.68303300           0.06955160
                        19.86108000           0.23257290
                         6.29930480           0.46707870
                         2.12702700           0.36343140
    S   3 1.00
                         4.72797100          -0.13039380
                         1.19033770          -0.13078890
                         0.35941170           1.13094440
    P   3 1.00
                         4.72797100           0.07459760
                         1.19033770           0.30784670
                         0.35941170           0.74345680
    S   1 1.00
                         0.12675120           1.00000000
    P   1 1.00
                         0.12675120           1.00000000
    ****
    F  20
    S   6 1.00
                      7001.71309000           0.00181962
                      1051.36609000           0.01391608
                       239.28569000           0.06840532
                        67.39744530           0.23318576
                        21.51995730           0.47126744
                         7.40310130           0.35661855
    S   3 1.00
                        20.84795280          -0.10850698
                         4.80830834          -0.14645166
                         1.34406986           1.12868858
    P   3 1.00
                        20.84795280           0.07162872
                         4.80830834           0.34591210
                         1.34406986           0.72246996
    S   1 1.00
                         0.35815139           1.00000000
    P   1 1.00
                         0.35815139           1.00000000
    ****
    F  21
    S   6 1.00
                      7001.71309000           0.00181962
                      1051.36609000           0.01391608
                       239.28569000           0.06840532
                        67.39744530           0.23318576
                        21.51995730           0.47126744
                         7.40310130           0.35661855
    S   3 1.00
                        20.84795280          -0.10850698
                         4.80830834          -0.14645166
                         1.34406986           1.12868858
    P   3 1.00
                        20.84795280           0.07162872
                         4.80830834           0.34591210
                         1.34406986           0.72246996
    S   1 1.00
                         0.35815139           1.00000000
    P   1 1.00
                         0.35815139           1.00000000
    ****



        *******************************************************
        *                                                     *
        *                                                     *
        *    Polaritonic RHF                                  *
        *                                                     *
        *                                                     *
        *******************************************************
    Molecular point group: c1
    Full point group: C2v

    Geometry (in Angstrom), charge = 0, multiplicity = 1:

       Center              X                  Y                   Z               Mass       
    ------------   -----------------  -----------------  -----------------  -----------------
         H            0.000000000000     0.510781068891    -4.463503536214     1.007825032230
         H            0.000000000000     0.510781068891     4.463503536214     1.007825032230
         H            0.000000000000     2.685243799000    -2.846156253165     1.007825032230
         H            0.000000000000    -1.651573074214    -2.804615540994     1.007825032230
         H            0.000000000000    -1.651573074214     2.804615540994     1.007825032230
         H            0.000000000000     2.685243799000     2.846156253165     1.007825032230
         H            0.000000000000     2.927100007706     0.000000000000     1.007825032230
         C            0.000000000000     0.529718349257    -3.382475237561    12.000000000000
         C            0.000000000000     0.529718349257     3.382475237561    12.000000000000
         C            0.000000000000     1.643095591630    -2.554386695392    12.000000000000
         C            0.000000000000     1.643095591630     2.554386695392    12.000000000000
         C            0.000000000000    -0.602958054613    -2.538094682553    12.000000000000
         C            0.000000000000    -0.602958054613     2.538094682553    12.000000000000
         C            0.000000000000     1.166008889859    -1.216987365738    12.000000000000
         C            0.000000000000     1.166008889859     1.216987365738    12.000000000000
         C            0.000000000000     1.841119066973     0.000000000000    12.000000000000
         N            0.000000000000    -0.228224731897    -1.251887963894    14.003074004430
         N            0.000000000000    -0.228224731897     1.251887963894    14.003074004430
         B            0.000000000000    -1.183680802631     0.000000000000    11.009305360000
         F            1.143257644405    -1.957903053471     0.000000000000    18.998403162730
         F           -1.143257644405    -1.957903053471     0.000000000000    18.998403162730

  -AO BASIS SET INFORMATION:
    Name                   = 6-31G
    Blend                  = 6-31G
    Total number of shells = 84
    Number of primitives   = 224
    Number of AO           = 140
    Number of SO           = 140
    Maximum AM             = 1
    Spherical Harmonics    = FALSE

  -Contraction Scheme:
    Atom   Type   All Primitives // Shells:
   ------ ------ --------------------------
       1     H     4s // 2s 
       2     H     4s // 2s 
       3     H     4s // 2s 
       4     H     4s // 2s 
       5     H     4s // 2s 
       6     H     4s // 2s 
       7     H     4s // 2s 
       8     C     10s 4p // 3s 2p 
       9     C     10s 4p // 3s 2p 
      10     C     10s 4p // 3s 2p 
      11     C     10s 4p // 3s 2p 
      12     C     10s 4p // 3s 2p 
      13     C     10s 4p // 3s 2p 
      14     C     10s 4p // 3s 2p 
      15     C     10s 4p // 3s 2p 
      16     C     10s 4p // 3s 2p 
      17     N     10s 4p // 3s 2p 
      18     N     10s 4p // 3s 2p 
      19     B     10s 4p // 3s 2p 
      20     F     10s 4p // 3s 2p 
      21     F     10s 4p // 3s 2p 

  ==> AO Basis Functions <==

    [ 6-31G ]
    cartesian
    ****
    H   1
    S   3 1.00
                        18.73113700           0.03349460
                         2.82539370           0.23472695
                         0.64012170           0.81375733
    S   1 1.00
                         0.16127780           1.00000000
    ****
    H   2
    S   3 1.00
                        18.73113700           0.03349460
                         2.82539370           0.23472695
                         0.64012170           0.81375733
    S   1 1.00
                         0.16127780           1.00000000
    ****
    H   3
    S   3 1.00
                        18.73113700           0.03349460
                         2.82539370           0.23472695
                         0.64012170           0.81375733
    S   1 1.00
                         0.16127780           1.00000000
    ****
    H   4
    S   3 1.00
                        18.73113700           0.03349460
                         2.82539370           0.23472695
                         0.64012170           0.81375733
    S   1 1.00
                         0.16127780           1.00000000
    ****
    H   5
    S   3 1.00
                        18.73113700           0.03349460
                         2.82539370           0.23472695
                         0.64012170           0.81375733
    S   1 1.00
                         0.16127780           1.00000000
    ****
    H   6
    S   3 1.00
                        18.73113700           0.03349460
                         2.82539370           0.23472695
                         0.64012170           0.81375733
    S   1 1.00
                         0.16127780           1.00000000
    ****
    H   7
    S   3 1.00
                        18.73113700           0.03349460
                         2.82539370           0.23472695
                         0.64012170           0.81375733
    S   1 1.00
                         0.16127780           1.00000000
    ****
    C   8
    S   6 1.00
                      3047.52490000           0.00183470
                       457.36951000           0.01403730
                       103.94869000           0.06884260
                        29.21015500           0.23218440
                         9.28666300           0.46794130
                         3.16392700           0.36231200
    S   3 1.00
                         7.86827240          -0.11933240
                         1.88128850          -0.16085420
                         0.54424930           1.14345640
    P   3 1.00
                         7.86827240           0.06899910
                         1.88128850           0.31642400
                         0.54424930           0.74430830
    S   1 1.00
                         0.16871440           1.00000000
    P   1 1.00
                         0.16871440           1.00000000
    ****
    C   9
    S   6 1.00
                      3047.52490000           0.00183470
                       457.36951000           0.01403730
                       103.94869000           0.06884260
                        29.21015500           0.23218440
                         9.28666300           0.46794130
                         3.16392700           0.36231200
    S   3 1.00
                         7.86827240          -0.11933240
                         1.88128850          -0.16085420
                         0.54424930           1.14345640
    P   3 1.00
                         7.86827240           0.06899910
                         1.88128850           0.31642400
                         0.54424930           0.74430830
    S   1 1.00
                         0.16871440           1.00000000
    P   1 1.00
                         0.16871440           1.00000000
    ****
    C  10
    S   6 1.00
                      3047.52490000           0.00183470
                       457.36951000           0.01403730
                       103.94869000           0.06884260
                        29.21015500           0.23218440
                         9.28666300           0.46794130
                         3.16392700           0.36231200
    S   3 1.00
                         7.86827240          -0.11933240
                         1.88128850          -0.16085420
                         0.54424930           1.14345640
    P   3 1.00
                         7.86827240           0.06899910
                         1.88128850           0.31642400
                         0.54424930           0.74430830
    S   1 1.00
                         0.16871440           1.00000000
    P   1 1.00
                         0.16871440           1.00000000
    ****
    C  11
    S   6 1.00
                      3047.52490000           0.00183470
                       457.36951000           0.01403730
                       103.94869000           0.06884260
                        29.21015500           0.23218440
                         9.28666300           0.46794130
                         3.16392700           0.36231200
    S   3 1.00
                         7.86827240          -0.11933240
                         1.88128850          -0.16085420
                         0.54424930           1.14345640
    P   3 1.00
                         7.86827240           0.06899910
                         1.88128850           0.31642400
                         0.54424930           0.74430830
    S   1 1.00
                         0.16871440           1.00000000
    P   1 1.00
                         0.16871440           1.00000000
    ****
    C  12
    S   6 1.00
                      3047.52490000           0.00183470
                       457.36951000           0.01403730
                       103.94869000           0.06884260
                        29.21015500           0.23218440
                         9.28666300           0.46794130
                         3.16392700           0.36231200
    S   3 1.00
                         7.86827240          -0.11933240
                         1.88128850          -0.16085420
                         0.54424930           1.14345640
    P   3 1.00
                         7.86827240           0.06899910
                         1.88128850           0.31642400
                         0.54424930           0.74430830
    S   1 1.00
                         0.16871440           1.00000000
    P   1 1.00
                         0.16871440           1.00000000
    ****
    C  13
    S   6 1.00
                      3047.52490000           0.00183470
                       457.36951000           0.01403730
                       103.94869000           0.06884260
                        29.21015500           0.23218440
                         9.28666300           0.46794130
                         3.16392700           0.36231200
    S   3 1.00
                         7.86827240          -0.11933240
                         1.88128850          -0.16085420
                         0.54424930           1.14345640
    P   3 1.00
                         7.86827240           0.06899910
                         1.88128850           0.31642400
                         0.54424930           0.74430830
    S   1 1.00
                         0.16871440           1.00000000
    P   1 1.00
                         0.16871440           1.00000000
    ****
    C  14
    S   6 1.00
                      3047.52490000           0.00183470
                       457.36951000           0.01403730
                       103.94869000           0.06884260
                        29.21015500           0.23218440
                         9.28666300           0.46794130
                         3.16392700           0.36231200
    S   3 1.00
                         7.86827240          -0.11933240
                         1.88128850          -0.16085420
                         0.54424930           1.14345640
    P   3 1.00
                         7.86827240           0.06899910
                         1.88128850           0.31642400
                         0.54424930           0.74430830
    S   1 1.00
                         0.16871440           1.00000000
    P   1 1.00
                         0.16871440           1.00000000
    ****
    C  15
    S   6 1.00
                      3047.52490000           0.00183470
                       457.36951000           0.01403730
                       103.94869000           0.06884260
                        29.21015500           0.23218440
                         9.28666300           0.46794130
                         3.16392700           0.36231200
    S   3 1.00
                         7.86827240          -0.11933240
                         1.88128850          -0.16085420
                         0.54424930           1.14345640
    P   3 1.00
                         7.86827240           0.06899910
                         1.88128850           0.31642400
                         0.54424930           0.74430830
    S   1 1.00
                         0.16871440           1.00000000
    P   1 1.00
                         0.16871440           1.00000000
    ****
    C  16
    S   6 1.00
                      3047.52490000           0.00183470
                       457.36951000           0.01403730
                       103.94869000           0.06884260
                        29.21015500           0.23218440
                         9.28666300           0.46794130
                         3.16392700           0.36231200
    S   3 1.00
                         7.86827240          -0.11933240
                         1.88128850          -0.16085420
                         0.54424930           1.14345640
    P   3 1.00
                         7.86827240           0.06899910
                         1.88128850           0.31642400
                         0.54424930           0.74430830
    S   1 1.00
                         0.16871440           1.00000000
    P   1 1.00
                         0.16871440           1.00000000
    ****
    N  17
    S   6 1.00
                      4173.51100000           0.00183480
                       627.45790000           0.01399500
                       142.90210000           0.06858700
                        40.23433000           0.23224100
                        12.82021000           0.46907000
                         4.39043700           0.36045500
    S   3 1.00
                        11.62635800          -0.11496100
                         2.71628000          -0.16911800
                         0.77221800           1.14585200
    P   3 1.00
                        11.62635800           0.06758000
                         2.71628000           0.32390700
                         0.77221800           0.74089500
    S   1 1.00
                         0.21203130           1.00000000
    P   1 1.00
                         0.21203130           1.00000000
    ****
    N  18
    S   6 1.00
                      4173.51100000           0.00183480
                       627.45790000           0.01399500
                       142.90210000           0.06858700
                        40.23433000           0.23224100
                        12.82021000           0.46907000
                         4.39043700           0.36045500
    S   3 1.00
                        11.62635800          -0.11496100
                         2.71628000          -0.16911800
                         0.77221800           1.14585200
    P   3 1.00
                        11.62635800           0.06758000
                         2.71628000           0.32390700
                         0.77221800           0.74089500
    S   1 1.00
                         0.21203130           1.00000000
    P   1 1.00
                         0.21203130           1.00000000
    ****
    B  19
    S   6 1.00
                      2068.88230000           0.00186630
                       310.64957000           0.01425150
                        70.68303300           0.06955160
                        19.86108000           0.23257290
                         6.29930480           0.46707870
                         2.12702700           0.36343140
    S   3 1.00
                         4.72797100          -0.13039380
                         1.19033770          -0.13078890
                         0.35941170           1.13094440
    P   3 1.00
                         4.72797100           0.07459760
                         1.19033770           0.30784670
                         0.35941170           0.74345680
    S   1 1.00
                         0.12675120           1.00000000
    P   1 1.00
                         0.12675120           1.00000000
    ****
    F  20
    S   6 1.00
                      7001.71309000           0.00181962
                      1051.36609000           0.01391608
                       239.28569000           0.06840532
                        67.39744530           0.23318576
                        21.51995730           0.47126744
                         7.40310130           0.35661855
    S   3 1.00
                        20.84795280          -0.10850698
                         4.80830834          -0.14645166
                         1.34406986           1.12868858
    P   3 1.00
                        20.84795280           0.07162872
                         4.80830834           0.34591210
                         1.34406986           0.72246996
    S   1 1.00
                         0.35815139           1.00000000
    P   1 1.00
                         0.35815139           1.00000000
    ****
    F  21
    S   6 1.00
                      7001.71309000           0.00181962
                      1051.36609000           0.01391608
                       239.28569000           0.06840532
                        67.39744530           0.23318576
                        21.51995730           0.47126744
                         7.40310130           0.35661855
    S   3 1.00
                        20.84795280          -0.10850698
                         4.80830834          -0.14645166
                         1.34406986           1.12868858
    P   3 1.00
                        20.84795280           0.07162872
                         4.80830834           0.34591210
                         1.34406986           0.72246996
    S   1 1.00
                         0.35815139           1.00000000
    P   1 1.00
                         0.35815139           1.00000000
    ****


    No. basis functions:              140
    No. auxiliary basis functions:   1309
    No. electrons:                     98
    e_convergence:              1.000e-12
    d_convergence:              1.000e-12
    maxiter:                           50



    Guess energy:     -677.272153674774

    ==>  Begin SCF Iterations <==

     Iter               energy                   dE          RMS |[F,P]| 
        0    -677.272152960006       0.000000714768       0.000000005517
        1    -677.272152959991       0.000000000015       0.000000000976
        2    -677.272152959983       0.000000000007       0.000000000388
        3    -677.272152959982       0.000000000002       0.000000000200
        4    -677.272152959980       0.000000000001       0.000000000039
        5    -677.272152959980       0.000000000000       0.000000000018
        6    -677.272152959980      -0.000000000000       0.000000000008
        7    -677.272152959979       0.000000000001       0.000000000003
        8    -677.272152959979       0.000000000000       0.000000000001

    SCF iterations converged!

    * Polaritonic RHF total energy:    -677.272152959979

    ==> Cavity Properties <==

        Energy x:      -0.000000000000    Dipole x:      -0.000000000002
        Energy y:      -0.000000019621    Dipole y:      -0.153407315274
        Energy z:      -0.000000000000    Dipole z:       0.000000007314


 # Orbital Energies #
 Irrep: 1
      1: -26.2297218
      2: -26.2297170
      3: -15.6125763
      4: -15.6125726
      5: -11.3223961
      6: -11.3081306
      7: -11.3081268
      8: -11.2905360
      9: -11.2904973
     10: -11.2747911
     11: -11.2747901
     12: -11.2470443
     13: -11.2470434
     14: -7.7118253
     15: -1.5631551
     16: -1.5253920
     17: -1.3322328
     18: -1.3115157
     19: -1.1147046
     20: -1.0852137
     21: -1.0710215
     22: -1.0022167
     23: -0.9221858
     24: -0.8348420
     25: -0.8150065
     26: -0.8036732
     27: -0.7949898
     28: -0.7478719
     29: -0.7120484
     30: -0.7092801
     31: -0.6753707
     32: -0.6562875
     33: -0.6468938
     34: -0.6143063
     35: -0.6133104
     36: -0.6016186
     37: -0.5964830
     38: -0.5830048
     39: -0.5770696
     40: -0.5737899
     41: -0.5590212
     42: -0.5588634
     43: -0.5571416
     44: -0.5362690
     45: -0.5107082
     46: -0.4133627
     47: -0.3758307
     48: -0.3686535
     49: -0.2878481
     50:  0.0021996
     51:  0.1744084
     52:  0.2034876
     53:  0.2277927
     54:  0.2294964
     55:  0.2527171
     56:  0.2594143
     57:  0.2871374
     58:  0.2922227
     59:  0.2929886
     60:  0.2984782
     61:  0.3015904
     62:  0.3519041
     63:  0.3578291
     64:  0.3829338
     65:  0.3954635
     66:  0.4240299
     67:  0.4387055
     68:  0.4431888
     69:  0.4493276
     70:  0.4869586
     71:  0.5428309
     72:  0.5731860
     73:  0.5890834
     74:  0.5951116
     75:  0.6381264
     76:  0.6556315
     77:  0.6799030
     78:  0.7036329
     79:  0.7066290
     80:  0.7266576
     81:  0.7596218
     82:  0.7621324
     83:  0.7910637
     84:  0.8001698
     85:  0.8046441
     86:  0.8222682
     87:  0.8223198
     88:  0.8233555
     89:  0.8322089
     90:  0.8396099
     91:  0.8423099
     92:  0.8724969
     93:  0.8898681
     94:  0.8917375
     95:  0.9013883
     96:  0.9230999
     97:  0.9547180
     98:  0.9588269
     99:  0.9696220
    100:  1.0609657
    101:  1.0904604
    102:  1.1052047
    103:  1.1134250
    104:  1.1178835
    105:  1.1188670
    106:  1.1307902
    107:  1.1341942
    108:  1.1504031
    109:  1.1692385
    110:  1.1781955
    111:  1.1823865
    112:  1.2102208
    113:  1.2134600
    114:  1.2440365
    115:  1.2757944
    116:  1.2783424
    117:  1.3413537
    118:  1.3470926
    119:  1.4256782
    120:  1.4425755
    121:  1.4628780
    122:  1.5394537
    123:  1.5770365
    124:  1.5898429
    125:  1.6502596
    126:  1.6626698
    127:  1.6872239
    128:  1.6889454
    129:  1.7513696
    130:  1.7772811
    131:  1.7943957
    132:  1.8687111
    133:  1.8930467
    134:  1.9463812
    135:  1.9954601
    136:  2.0772977
    137:  2.0968248
    138:  2.1297257
    139:  2.4568993
    140:  2.7643994


    Psi4 stopped on: Thursday, 03 September 2020 08:39AM
    Psi4 wall time for execution: 0:00:38.94

*** Psi4 exiting successfully. Buy a developer a beer!
