
    -----------------------------------------------------------------------
          Psi4: An Open-Source Ab Initio Electronic Structure Package
                               Psi4 1.4a2.dev397 

                         Git: Rev {master} b3df9b2 dirty


    R. M. Parrish, L. A. Burns, D. G. A. Smith, A. C. Simmonett,
    A. E. DePrince III, E. G. Hohenstein, U. Bozkaya, A. Yu. Sokolov,
    R. Di Remigio, R. M. Richard, J. F. Gonthier, A. M. James,
    H. R. McAlexander, A. Kumar, M. Saitow, X. Wang, B. P. Pritchard,
    P. Verma, H. F. Schaefer III, K. Patkowski, R. A. King, E. F. Valeev,
    F. A. Evangelista, J. M. Turney, T. D. Crawford, and C. D. Sherrill,
    J. Chem. Theory Comput. 13(7) pp 3185--3197 (2017).
    (doi: 10.1021/acs.jctc.7b00174)


                         Additional Contributions by
    P. Kraus, H. Kruse, M. H. Lechner, M. C. Schieber, R. A. Shaw,
    A. Alenaizan, R. Galvelis, Z. L. Glick, S. Lehtola, and J. P. Misiewicz

    -----------------------------------------------------------------------


    Psi4 started on: Thursday, 16 July 2020 09:22AM

    Process ID: 90527
    Host:       illegally-used-at.fsu
    PSIDATADIR: /Users/deprince/edeprince3/psi4/install/master/share/psi4
    Memory:     500.0 MiB
    Threads:    1
    
  ==> Input File <==

--------------------------------------------------------------------------
#! cc-pvdz N2 (6,6) active space Test DQG

# job description:
print('        N2 / cc-pVDZ / DQG(6,6), scf_type = DF, rNN = 1.1 A')

sys.path.insert(0, '../../..')
import hilbert

molecule n2 {
0 1
n
n 1 r
}

set {
  basis cc-pvdz
  scf_type df
  d_convergence      1e-10
  maxiter 500
  restricted_docc [ 2, 0, 0, 0, 0, 2, 0, 0 ]
  active          [ 1, 0, 1, 1, 0, 1, 1, 1 ]
}

set hilbert {
  maxiter 20000
  orbopt_maxiter 20
  positivity dqg
  r_convergence  1e-5
  e_convergence  1e-6
}

activate(n2)

n2.r     = 1.1
refscf   = -108.95348837831371 # TEST
refv2rdm = -109.094404909477   # TEST

energy('v2rdm-casscf')

compare_values(refscf, variable("SCF TOTAL ENERGY"), 8, "SCF total energy") # TEST
compare_values(refv2rdm, variable("CURRENT ENERGY"), 5, "v2RDM-CASSCF total energy") # TEST

--------------------------------------------------------------------------
Molecule: geometry: Molecule is not complete, please use 'update_geometry'
                    once all variables are set.
Molecule: Setting geometry variable r to 1.100000

Scratch directory: /tmp/

*** tstart() called on illegally-used-at.fsu
*** at Thu Jul 16 09:22:08 2020

   => Loading Basis Set <=

    Name: CC-PVDZ
    Role: ORBITAL
    Keyword: BASIS
    atoms 1-2 entry N          line   168 file /Users/deprince/edeprince3/psi4/install/master/share/psi4/basis/cc-pvdz.gbs 


         ---------------------------------------------------------
                                   SCF
               by Justin Turney, Rob Parrish, Andy Simmonett
                          and Daniel G. A. Smith
                              RHF Reference
                        1 Threads,    500 MiB Core
         ---------------------------------------------------------

  ==> Geometry <==

    Molecular point group: d2h
    Full point group: D_inf_h

    Geometry (in Angstrom), charge = 0, multiplicity = 1:

       Center              X                  Y                   Z               Mass       
    ------------   -----------------  -----------------  -----------------  -----------------
         N            0.000000000000     0.000000000000    -0.550000000000    14.003074004430
         N            0.000000000000     0.000000000000     0.550000000000    14.003074004430

  Running in d2h symmetry.

  Rotational constants: A = ************  B =      1.98984  C =      1.98984 [cm^-1]
  Rotational constants: A = ************  B =  59653.84489  C =  59653.84489 [MHz]
  Nuclear repulsion =   23.572439384390908

  Charge       = 0
  Multiplicity = 1
  Electrons    = 14
  Nalpha       = 7
  Nbeta        = 7

  ==> Algorithm <==

  SCF Algorithm Type is DF.
  DIIS enabled.
  MOM disabled.
  Fractional occupation disabled.
  Guess Type is SAD.
  Energy threshold   = 1.00e-08
  Density threshold  = 1.00e-10
  Integral threshold = 0.00e+00

  ==> Primary Basis <==

  Basis Set: CC-PVDZ
    Blend: CC-PVDZ
    Number of shells: 12
    Number of basis function: 28
    Number of Cartesian functions: 30
    Spherical Harmonics?: true
    Max angular momentum: 2

   => Loading Basis Set <=

    Name: (CC-PVDZ AUX)
    Role: JKFIT
    Keyword: DF_BASIS_SCF
    atoms 1-2 entry N          line   171 file /Users/deprince/edeprince3/psi4/install/master/share/psi4/basis/cc-pvdz-jkfit.gbs 

  ==> Pre-Iterations <==

   -------------------------------------------------------
    Irrep   Nso     Nmo     Nalpha   Nbeta   Ndocc  Nsocc
   -------------------------------------------------------
     Ag         7       7       0       0       0       0
     B1g        1       1       0       0       0       0
     B2g        3       3       0       0       0       0
     B3g        3       3       0       0       0       0
     Au         1       1       0       0       0       0
     B1u        7       7       0       0       0       0
     B2u        3       3       0       0       0       0
     B3u        3       3       0       0       0       0
   -------------------------------------------------------
    Total      28      28       7       7       7       0
   -------------------------------------------------------

  ==> Integral Setup <==

  ==> DiskDFJK: Density-Fitted J/K Matrices <==

    J tasked:                  Yes
    K tasked:                  Yes
    wK tasked:                  No
    OpenMP threads:              1
    Integrals threads:           1
    Memory [MiB]:              375
    Algorithm:                Core
    Integral Cache:           SAVE
    Schwarz Cutoff:          1E-12
    Fitting Condition:       1E-10

   => Auxiliary Basis Set <=

  Basis Set: (CC-PVDZ AUX)
    Blend: CC-PVDZ-JKFIT
    Number of shells: 48
    Number of basis function: 140
    Number of Cartesian functions: 162
    Spherical Harmonics?: true
    Max angular momentum: 3

  Minimum eigenvalue in the overlap matrix is 1.1767548982E-02.
  Reciprocal condition number of the overlap matrix is 4.1659319633E-03.
    Using symmetric orthogonalization.
  SCF Guess: Superposition of Atomic Densities via on-the-fly atomic UHF.

  ==> Iterations <==

                           Total Energy        Delta E     RMS |[F,P]|

   @DF-RHF iter SAD:  -108.07300399922082   -1.08073e+02   0.00000e+00 
   @DF-RHF iter   1:  -108.94804900471208   -8.75045e-01   8.81958e-03 DIIS
   @DF-RHF iter   2:  -108.95324410915109   -5.19510e-03   1.59716e-03 DIIS
   @DF-RHF iter   3:  -108.95347046333983   -2.26354e-04   4.12223e-04 DIIS
   @DF-RHF iter   4:  -108.95348790932991   -1.74460e-05   6.76685e-05 DIIS
   @DF-RHF iter   5:  -108.95348836504243   -4.55713e-07   1.18839e-05 DIIS
   @DF-RHF iter   6:  -108.95348837891451   -1.38721e-08   7.15626e-07 DIIS
   @DF-RHF iter   7:  -108.95348837895429   -3.97762e-11   3.14021e-08 DIIS
   @DF-RHF iter   8:  -108.95348837895452   -2.27374e-13   2.86859e-09 DIIS
   @DF-RHF iter   9:  -108.95348837895452    0.00000e+00   3.54831e-10 DIIS
   @DF-RHF iter  10:  -108.95348837895448    4.26326e-14   1.37427e-11 DIIS
  Energy and wave function converged.


  ==> Post-Iterations <==

    Orbital Energies [Eh]
    ---------------------

    Doubly Occupied:                                                      

       1Ag   -15.687294     1B1u  -15.683937     2Ag    -1.469609  
       2B1u   -0.774890     3Ag    -0.626042     1B3u   -0.607131  
       1B2u   -0.607131  

    Virtual:                                                              

       1B2g    0.174361     1B3g    0.174361     3B1u    0.593802  
       4Ag     0.821219     2B2u    0.873141     2B3u    0.873141  
       5Ag     0.992144     2B3g    1.050649     2B2g    1.050649  
       4B1u    1.140869     5B1u    1.640793     1B1g    1.759650  
       6Ag     1.759650     3B3u    1.880643     3B2u    1.880643  
       1Au     2.297692     6B1u    2.297692     7Ag     2.872203  
       3B3g    2.994434     3B2g    2.994434     7B1u    3.278797  

    Final Occupation by Irrep:
             Ag   B1g   B2g   B3g    Au   B1u   B2u   B3u 
    DOCC [     3,    0,    0,    0,    0,    2,    1,    1 ]

  @DF-RHF Final Energy:  -108.95348837895448

   => Energetics <=

    Nuclear Repulsion Energy =             23.5724393843909077
    One-Electron Energy =                -194.1397893486851558
    Two-Electron Energy =                  61.6138615853397553
    Total Energy =                       -108.9534883789544892

Computation Completed


Properties will be evaluated at   0.000000,   0.000000,   0.000000 [a0]

Properties computed using the SCF density matrix

  Nuclear Dipole Moment: [e a0]
     X:     0.0000      Y:     0.0000      Z:     0.0000

  Electronic Dipole Moment: [e a0]
     X:     0.0000      Y:     0.0000      Z:     0.0000

  Dipole Moment: [e a0]
     X:     0.0000      Y:     0.0000      Z:     0.0000     Total:     0.0000

  Dipole Moment: [D]
     X:     0.0000      Y:     0.0000      Z:     0.0000     Total:     0.0000


*** tstop() called on illegally-used-at.fsu at Thu Jul 16 09:22:09 2020
Module time:
	user time   =       0.36 seconds =       0.01 minutes
	system time =       0.01 seconds =       0.00 minutes
	total time  =          1 seconds =       0.02 minutes
Total time:
	user time   =       0.36 seconds =       0.01 minutes
	system time =       0.01 seconds =       0.00 minutes
	total time  =          1 seconds =       0.02 minutes

Reading options from the HILBERT block
Calling plugin hilbert.so.




        ****************************************************
        *                                                  *
        *    v2RDM-CASSCF                                  *
        *                                                  *
        *    A variational 2-RDM-driven approach to the    *
        *    active space self-consistent field method     *
        *                                                  *
        ****************************************************


        The following papers should be cited when using v2RDM-CASSCF:

        J. Fosso-Tande, D. R. Nascimento, and A. E. DePrince III,
        Mol. Phys. 114, 423-430 (2015).

            URL: http://dx.doi.org/10.1080/00268976.2015.1078008

        J. Fosso-Tande, T.-S. Nguyen, G. Gidofalvi, and
        A. E. DePrince III, J. Chem. Theory Comput. accepted (2016).

            URL: http://dx.doi.org/10.1021/acs.jctc.6b00190



  ==> Convergence parameters <==

        r_convergence:                      1.000e-05
        e_convergence:                      1.000e-06
        cg_convergence:                     1.000e-09
        maxiter:                                20000
        cg_maxiter:                             10000

  ==> Active space details <==

        Number of frozen core orbitals:             0
        Number of restricted occupied orbitals:     4
        Number of active occupied orbitals:         3
        Number of active virtual orbitals:          3
        Number of restricted virtual orbitals:     18
        Number of frozen virtual orbitals:          0

        Irrep:             Ag, B1g, B2g, B3g,  Au, B1u, B2u, B3u 
 
        frozen_docc     [   0,   0,   0,   0,   0,   0,   0,   0 ]
        restricted_docc [   2,   0,   0,   0,   0,   2,   0,   0 ]
        active          [   1,   0,   1,   1,   0,   1,   1,   1 ]
        restricted_uocc [   4,   1,   2,   2,   1,   4,   2,   2 ]
        frozen_uocc     [   0,   0,   0,   0,   0,   0,   0,   0 ]

  ==> Orbital optimization parameters <==

        1-step algorithm:                    true
        g_convergence:                  1.000e-04
        e_convergence:                  1.000e-08
        maximum iterations:                    20
        frequency:                            500
        active-active rotations:            false
        exact diagonal Hessian:              true
        number of DIIS vectors:                 0
        print iteration info:               false

  ==> Memory requirements <==

        D2:                          0.00 mb
        Q2:                          0.00 mb
        G2:                          0.01 mb

        Total number of variables:           1668
        Total number of constraints:         1567
        Total memory requirements:        0.54 mb

    ==> Transform three-electron integrals <==


        Time for integral transformation:     0.03 s

    Molecular point group: d2h
    Full point group: D_inf_h

    Geometry (in Angstrom), charge = 0, multiplicity = 1:

       Center              X                  Y                   Z               Mass       
    ------------   -----------------  -----------------  -----------------  -----------------
         N            0.000000000000     0.000000000000    -0.550000000000    14.003074004430
         N            0.000000000000     0.000000000000     0.550000000000    14.003074004430

  -AO BASIS SET INFORMATION:
    Name                   = CC-PVDZ
    Blend                  = CC-PVDZ
    Total number of shells = 12
    Number of primitives   = 44
    Number of AO           = 30
    Number of SO           = 28
    Maximum AM             = 2
    Spherical Harmonics    = TRUE

  -Contraction Scheme:
    Atom   Type   All Primitives // Shells:
   ------ ------ --------------------------
       1     N     17s 4p 1d // 3s 2p 1d 
       2     N     17s 4p 1d // 3s 2p 1d 

  ==> AO Basis Functions <==

    [ CC-PVDZ ]
    spherical
    ****
    N   1
    S   8 1.00
                      9046.00000000           0.00070000
                      1357.00000000           0.00538900
                       309.30000000           0.02740600
                        87.73000000           0.10320700
                        28.56000000           0.27872300
                        10.21000000           0.44854000
                         3.83800000           0.27823800
                         0.74660000           0.01544000
    S   8 1.00
                      9046.00000000          -0.00015300
                      1357.00000000          -0.00120800
                       309.30000000          -0.00599200
                        87.73000000          -0.02454400
                        28.56000000          -0.06745900
                        10.21000000          -0.15807800
                         3.83800000          -0.12183100
                         0.74660000           0.54900300
    S   1 1.00
                         0.22480000           1.00000000
    P   3 1.00
                        13.55000000           0.03991900
                         2.91700000           0.21716900
                         0.79730000           0.51031900
    P   1 1.00
                         0.21850000           1.00000000
    D   1 1.00
                         0.81700000           1.00000000
    ****


    reference energy:        -108.953488378954
    frozen core energy:      -121.129881074442
    initial 2-RDM energy:     -93.112041912803

      oiter iiter        E(p)        E(d)      E gap)      mu     eps(p)     eps(d)
          0    38 -101.080086  193.074574 2.941547e+02   1.000 8.83961e+01 8.59165e+01
          1    18 -105.863633 -276.946291 1.710827e+02   1.000 7.88976e+00 3.86658e+01
          2    26 -108.329308 -143.129641 3.480033e+01   1.000 3.56265e+00 5.83575e+00
          3    21 -108.696375 -123.144851 1.444848e+01   1.000 4.74550e+00 2.44602e+00
          4    25 -108.169226 -111.533393 3.364167e+00   1.000 3.46459e+00 1.79019e+00
          5    20 -107.650283 -109.244018 1.593735e+00   1.000 2.17135e+00 1.13163e+00
          6    26 -107.496270 -107.687661 1.913912e-01   1.000 1.61040e+00 8.59349e-01
          7    25 -107.571480 -106.815253 7.562277e-01   1.000 1.10972e+00 8.80187e-01
          8    22 -107.639783 -106.495329 1.144453e+00   1.000 4.82171e-01 8.31006e-01
          9    22 -107.735384 -107.025801 7.095831e-01   1.000 2.89269e-01 4.29126e-01
         10    20 -107.818862 -107.274841 5.440213e-01   1.000 2.37129e-01 3.00303e-01
         11    17 -107.884304 -107.326991 5.573133e-01   1.000 1.40456e-01 3.17469e-01
         12    24 -107.924834 -107.487934 4.369001e-01   1.000 1.67224e-01 2.60726e-01
         13    18 -107.957521 -107.624390 3.331303e-01   1.000 1.60584e-01 2.48269e-01
         14    17 -107.988196 -107.698185 2.900111e-01   1.000 1.26066e-01 2.42476e-01
         15    17 -108.023024 -107.709014 3.140095e-01   1.000 9.15977e-02 2.33065e-01
         16    17 -108.061295 -107.700610 3.606849e-01   1.000 7.83030e-02 2.20294e-01
         17    18 -108.102838 -107.691120 4.117180e-01   1.000 8.62082e-02 2.09120e-01
         18    18 -108.145140 -107.698562 4.465783e-01   1.000 9.95674e-02 2.00358e-01
         19    18 -108.183752 -107.721832 4.619201e-01   1.000 1.08521e-01 1.93417e-01
         20    18 -108.219693 -107.769051 4.506414e-01   1.000 1.11504e-01 1.89522e-01
         21    17 -108.253622 -107.807195 4.464262e-01   1.000 1.08477e-01 1.88425e-01
         22    17 -108.284640 -107.828605 4.560346e-01   1.000 1.05436e-01 1.87038e-01
         23    17 -108.313152 -107.845370 4.677818e-01   1.000 1.02772e-01 1.84279e-01
         24    17 -108.339849 -107.858865 4.809841e-01   1.000 9.38244e-02 1.82776e-01
         25    17 -108.366940 -107.902857 4.640828e-01   1.000 7.41157e-02 1.79127e-01
         26    17 -108.394662 -107.904185 4.904771e-01   1.000 6.12916e-02 1.75974e-01
         27    20 -108.423352 -107.891306 5.320458e-01   1.000 5.83047e-02 1.73203e-01
         28    21 -108.452836 -107.874608 5.782283e-01   1.000 5.91405e-02 1.71494e-01
         29    18 -108.477854 -107.861456 6.163981e-01   1.000 7.20609e-02 1.67272e-01
         30    22 -108.490194 -107.904042 5.861526e-01   1.000 9.65941e-02 1.55836e-01
         31    21 -108.505792 -108.008782 4.970104e-01   1.000 1.22710e-01 1.40486e-01
         32    19 -108.527225 -108.155587 3.716385e-01   1.000 1.25406e-01 1.27186e-01
         33    19 -108.542238 -108.305013 2.372254e-01   1.000 1.04303e-01 1.21391e-01
         34    17 -108.552006 -108.370938 1.810683e-01   1.000 8.24767e-02 1.19318e-01
         35    17 -108.572375 -108.373855 1.985204e-01   1.000 6.27575e-02 1.15545e-01
         36    17 -108.590234 -108.351763 2.384718e-01   1.000 6.09235e-02 1.15290e-01
         37    21 -108.600020 -108.336920 2.631006e-01   1.000 6.03510e-02 1.10291e-01
         38    17 -108.606169 -108.325220 2.809493e-01   1.000 5.36105e-02 1.08773e-01
         39    17 -108.610348 -108.314921 2.954272e-01   1.000 4.07750e-02 1.07415e-01
         40    17 -108.615006 -108.312702 3.023033e-01   1.000 3.13529e-02 1.05696e-01
         41    17 -108.621419 -108.317081 3.043381e-01   1.000 2.94975e-02 1.03747e-01
         42    21 -108.629765 -108.326317 3.034475e-01   1.000 3.17852e-02 1.01856e-01
         43    21 -108.638775 -108.334849 3.039263e-01   1.000 3.38672e-02 1.00301e-01
         44    19 -108.647984 -108.340720 3.072636e-01   1.000 3.52170e-02 9.90840e-02
         45    19 -108.656342 -108.344116 3.122257e-01   1.000 3.83663e-02 9.79695e-02
         46    19 -108.662510 -108.346833 3.156770e-01   1.000 4.64409e-02 9.65581e-02
         47    19 -108.669284 -108.354947 3.143373e-01   1.000 5.24971e-02 9.49696e-02
         48    19 -108.676868 -108.363525 3.133432e-01   1.000 5.33858e-02 9.40112e-02
         49    17 -108.685514 -108.371352 3.141615e-01   1.000 4.93970e-02 9.36457e-02
         50    17 -108.694870 -108.381155 3.137144e-01   1.000 4.15232e-02 9.36333e-02
         51    17 -108.704961 -108.391349 3.136125e-01   1.000 3.19257e-02 9.34689e-02
         52    20 -108.715703 -108.397975 3.177284e-01   1.000 2.34634e-02 9.32251e-02
         53    21 -108.726600 -108.396662 3.299377e-01   1.000 1.96301e-02 9.29908e-02
         54    21 -108.737270 -108.391062 3.462081e-01   1.000 2.07258e-02 9.27216e-02
         55    21 -108.747493 -108.385964 3.615288e-01   1.000 2.47791e-02 9.21081e-02
         56    21 -108.756959 -108.379762 3.771974e-01   1.000 2.82115e-02 9.14852e-02
         57    21 -108.765554 -108.374690 3.908643e-01   1.000 2.98382e-02 9.07926e-02
         58    19 -108.773476 -108.373516 3.999608e-01   1.000 3.03750e-02 9.00275e-02
         59    17 -108.780638 -108.378611 4.020263e-01   1.000 3.05260e-02 8.91507e-02
         60    17 -108.787571 -108.385415 4.021560e-01   1.000 3.03457e-02 8.83942e-02
         61    17 -108.794333 -108.394061 4.002727e-01   1.000 2.97446e-02 8.78531e-02
         62    17 -108.801013 -108.402225 3.987880e-01   1.000 2.84716e-02 8.75454e-02
         63    17 -108.806702 -108.409213 3.974885e-01   1.000 2.56249e-02 8.74363e-02
         64    17 -108.813124 -108.416885 3.962391e-01   1.000 2.32808e-02 8.73799e-02
         65    17 -108.819616 -108.421167 3.984494e-01   1.000 2.05093e-02 8.74202e-02
         66    17 -108.826135 -108.423449 4.026861e-01   1.000 1.81558e-02 8.73816e-02
         67    17 -108.832628 -108.426218 4.064103e-01   1.000 1.67973e-02 8.71265e-02
         68    17 -108.839152 -108.429214 4.099378e-01   1.000 1.61431e-02 8.67887e-02
         69    17 -108.845597 -108.431038 4.145596e-01   1.000 1.57121e-02 8.64840e-02
         70    19 -108.852246 -108.431819 4.204272e-01   1.000 1.56007e-02 8.62131e-02
         71    19 -108.859197 -108.431356 4.278410e-01   1.000 1.58050e-02 8.59268e-02
         72    19 -108.866370 -108.431324 4.350456e-01   1.000 1.62538e-02 8.55641e-02
         73    19 -108.873732 -108.430722 4.430107e-01   1.000 1.67162e-02 8.51804e-02
         74    19 -108.881118 -108.429690 4.514270e-01   1.000 1.65616e-02 8.48422e-02
         75    19 -108.888657 -108.429745 4.589120e-01   1.000 1.64147e-02 8.45392e-02
         76    19 -108.896370 -108.429321 4.670491e-01   1.000 1.63493e-02 8.42997e-02
         77    19 -108.904226 -108.427546 4.766804e-01   1.000 1.65095e-02 8.41272e-02
         78    17 -108.912079 -108.425454 4.866248e-01   1.000 1.68528e-02 8.39891e-02
         79    17 -108.919672 -108.424109 4.955630e-01   1.000 1.68325e-02 8.38695e-02
         80    21 -108.926861 -108.423852 5.030087e-01   1.000 1.66221e-02 8.37368e-02
         81    18 -108.933954 -108.424752 5.092023e-01   1.000 1.71982e-02 8.34661e-02
         82    20 -108.940786 -108.429919 5.108667e-01   1.000 1.87810e-02 8.28331e-02
         83    18 -108.946876 -108.437153 5.097228e-01   1.000 2.00624e-02 8.20320e-02
         84    19 -108.952248 -108.443353 5.088955e-01   1.000 2.05788e-02 8.12889e-02
         85    17 -108.956969 -108.450557 5.064112e-01   1.000 2.28094e-02 8.00567e-02
         86    19 -108.960970 -108.463961 4.970090e-01   1.000 2.67940e-02 7.79151e-02
         87    19 -108.965765 -108.488699 4.770657e-01   1.000 3.25428e-02 7.47630e-02
         88    19 -108.970987 -108.534419 4.365675e-01   1.000 3.82855e-02 7.04495e-02
         89    19 -108.975867 -108.592461 3.834067e-01   1.000 4.26958e-02 6.61089e-02
         90    19 -108.979123 -108.652278 3.268444e-01   1.000 4.69985e-02 6.27513e-02
         91    19 -108.980924 -108.707802 2.731221e-01   1.000 4.76580e-02 6.08925e-02
         92    17 -108.982688 -108.748220 2.344681e-01   1.000 4.62617e-02 5.98250e-02
         93    17 -108.984157 -108.780220 2.039370e-01   1.000 4.27937e-02 5.82495e-02
         94    17 -108.986098 -108.797837 1.882606e-01   1.000 3.79933e-02 5.68978e-02
         95    17 -108.988296 -108.808113 1.801826e-01   1.000 3.37201e-02 5.51692e-02
         96    17 -108.990657 -108.809200 1.814572e-01   1.000 3.03581e-02 5.36718e-02
         97    17 -108.993086 -108.805203 1.878826e-01   1.000 2.67070e-02 5.27735e-02
         98    17 -108.995553 -108.803583 1.919704e-01   1.000 2.32520e-02 5.16463e-02
         99    17 -108.998034 -108.802611 1.954224e-01   1.000 2.03289e-02 5.05206e-02
        100    17 -109.000355 -108.802022 1.983331e-01   1.000 1.78298e-02 4.94455e-02
        101    17 -109.002439 -108.803183 1.992559e-01   1.000 1.54165e-02 4.83851e-02
        102    17 -109.004211 -108.807946 1.962649e-01   1.000 1.36531e-02 4.71750e-02
        103    19 -109.005892 -108.813050 1.928425e-01   1.000 1.23539e-02 4.59411e-02
        104    17 -109.007587 -108.816564 1.910239e-01   1.000 1.14084e-02 4.46880e-02
        105    17 -109.009225 -108.819654 1.895709e-01   1.000 1.12015e-02 4.33578e-02
        106    19 -109.010670 -108.824013 1.866572e-01   1.000 1.15351e-02 4.19461e-02
        107    17 -109.012041 -108.827497 1.845445e-01   1.000 1.21212e-02 4.06448e-02
        108    17 -109.013663 -108.829408 1.842552e-01   1.000 1.26996e-02 3.95370e-02
        109    17 -109.015344 -108.829966 1.853775e-01   1.000 1.30549e-02 3.86147e-02
        110    17 -109.017156 -108.829585 1.875711e-01   1.000 1.32787e-02 3.78132e-02
        111    17 -109.018960 -108.828985 1.899751e-01   1.000 1.34813e-02 3.70481e-02
        112    17 -109.020641 -108.828868 1.917733e-01   1.000 1.37771e-02 3.62505e-02
        113    17 -109.022215 -108.829877 1.923373e-01   1.000 1.41989e-02 3.54402e-02
        114    17 -109.023933 -108.833381 1.905520e-01   1.000 1.48742e-02 3.45372e-02
        115    17 -109.025699 -108.838917 1.867823e-01   1.000 1.59336e-02 3.35281e-02
        116    17 -109.027379 -108.844905 1.824746e-01   1.000 1.71352e-02 3.23905e-02
        117    19 -109.028820 -108.851474 1.773458e-01   1.000 1.83746e-02 3.11667e-02
        118    17 -109.030330 -108.861621 1.687090e-01   1.000 1.93752e-02 2.98606e-02
        119    19 -109.031609 -108.872149 1.594601e-01   1.000 2.02252e-02 2.85447e-02
        120    17 -109.032791 -108.883569 1.492219e-01   1.000 2.05206e-02 2.74198e-02
        121    19 -109.033767 -108.897492 1.362752e-01   1.000 2.12247e-02 2.59162e-02
        122    17 -109.034615 -108.910137 1.244782e-01   1.000 2.17641e-02 2.46003e-02
        123    17 -109.035263 -108.921597 1.136656e-01   1.000 2.20208e-02 2.34208e-02
        124    17 -109.035710 -108.932578 1.031326e-01   1.000 2.20218e-02 2.23360e-02
        125    17 -109.035969 -108.942655 9.331394e-02   1.000 2.18564e-02 2.13307e-02
        126    17 -109.035984 -108.951630 8.435428e-02   1.000 2.14909e-02 2.03911e-02
        127    17 -109.035809 -108.959455 7.635404e-02   1.000 2.10443e-02 1.94988e-02
        128    17 -109.035566 -108.965985 6.958160e-02   1.000 2.06228e-02 1.86304e-02
        129    17 -109.035222 -108.971054 6.416777e-02   1.000 2.01533e-02 1.77769e-02
        130    17 -109.034756 -108.975305 5.945129e-02   1.000 1.96581e-02 1.69117e-02
        131    17 -109.034233 -108.978359 5.587348e-02   1.000 1.91411e-02 1.60446e-02
        132    17 -109.033726 -108.980317 5.340937e-02   1.000 1.85765e-02 1.51791e-02
        133    17 -109.033238 -108.981164 5.207371e-02   1.000 1.79460e-02 1.43255e-02
        134    17 -109.032766 -108.981310 5.145543e-02   1.000 1.71708e-02 1.35245e-02
        135    18 -109.031511 -108.981770 4.974116e-02   1.000 1.45276e-02 1.29507e-02
        136    17 -109.030431 -108.984698 4.573256e-02   1.000 1.31089e-02 1.22197e-02
        137    17 -109.029782 -108.987625 4.215706e-02   1.000 1.24166e-02 1.14854e-02
        138    17 -109.029334 -108.990218 3.911669e-02   1.000 1.17587e-02 1.07899e-02
        139    17 -109.029028 -108.992792 3.623545e-02   1.000 1.10308e-02 1.01451e-02
        140    17 -109.028828 -108.994961 3.386703e-02   1.000 1.02533e-02 9.55668e-03
        141    17 -109.028676 -108.996900 3.177550e-02   1.000 9.51460e-03 8.99275e-03
        142    17 -109.028524 -108.998464 3.005953e-02   1.000 8.85750e-03 8.46192e-03
        143    17 -109.028353 -108.999990 2.836254e-02   1.000 8.29088e-03 7.95302e-03
        144    17 -109.028157 -109.001442 2.671484e-02   1.000 7.81322e-03 7.46651e-03
        145    17 -109.027949 -109.002879 2.507023e-02   1.000 7.41518e-03 6.99553e-03
        146    17 -109.027751 -109.004319 2.343210e-02   1.000 7.07730e-03 6.53986e-03
        147    17 -109.027579 -109.005883 2.169594e-02   1.000 6.80377e-03 6.08009e-03
        148    17 -109.027448 -109.007268 2.018018e-02   1.000 6.57721e-03 5.64037e-03
        149    17 -109.027359 -109.008487 1.887168e-02   1.000 6.39064e-03 5.22355e-03
        150    17 -109.027305 -109.009543 1.776209e-02   1.000 6.23099e-03 4.84107e-03
        151    17 -109.027279 -109.010522 1.675693e-02   1.000 6.08254e-03 4.51646e-03
        152    17 -109.027285 -109.011597 1.568831e-02   1.000 5.95689e-03 4.21418e-03
        153    17 -109.027294 -109.012353 1.494099e-02   1.000 5.84574e-03 3.97478e-03
        154    17 -109.027300 -109.012980 1.432024e-02   1.000 5.72040e-03 3.79069e-03
        155    17 -109.027259 -109.013658 1.360139e-02   1.000 5.57126e-03 3.63967e-03
        156    17 -109.027144 -109.014419 1.272515e-02   1.000 5.42301e-03 3.52944e-03
        157    17 -109.027101 -109.015424 1.167765e-02   1.000 5.30267e-03 3.39214e-03
        158    17 -109.027041 -109.016182 1.085935e-02   1.000 5.19469e-03 3.27326e-03
        159    17 -109.027021 -109.016962 1.005901e-02   1.000 5.07343e-03 3.19115e-03
        160    17 -109.027014 -109.018008 9.005689e-03   1.000 4.99403e-03 3.03344e-03
        161    17 -109.026914 -109.018797 8.116598e-03   1.000 4.89847e-03 2.90337e-03
        162    17 -109.026820 -109.019736 7.083489e-03   1.000 4.84501e-03 2.76544e-03
        163    21 -109.026765 -109.020750 6.015431e-03   1.000 4.78593e-03 2.58947e-03
        164    21 -109.026674 -109.021405 5.269173e-03   1.000 4.73338e-03 2.44974e-03
        165    20 -109.026573 -109.022008 4.565645e-03   1.000 4.68047e-03 2.32188e-03
        166    20 -109.026447 -109.022573 3.873418e-03   1.000 4.63090e-03 2.20556e-03
        167    21 -109.026343 -109.023102 3.240370e-03   1.000 4.54349e-03 2.11294e-03
        168    21 -109.026260 -109.023651 2.609207e-03   1.000 4.35170e-03 2.21492e-03
        169    18 -109.026256 -109.024498 1.757836e-03   1.000 4.17945e-03 2.15324e-03
        170    18 -109.026242 -109.024841 1.400732e-03   1.000 4.04157e-03 2.15708e-03
        171    18 -109.026212 -109.025146 1.065864e-03   1.000 3.93514e-03 2.12315e-03
        172    17 -109.026175 -109.025504 6.709131e-04   1.000 3.85958e-03 2.04307e-03
        173    17 -109.026142 -109.025911 2.310540e-04   1.000 3.81485e-03 1.92029e-03
        174    17 -109.026109 -109.026306 1.970464e-04   1.000 3.79267e-03 1.77234e-03
        175    18 -109.026073 -109.026624 5.512642e-04   1.000 3.78195e-03 1.61906e-03
        176    18 -109.026028 -109.026841 8.130250e-04   1.000 3.77364e-03 1.48061e-03
        177    18 -109.025971 -109.026905 9.342670e-04   1.000 3.76046e-03 1.37272e-03
        178    18 -109.025901 -109.026780 8.790878e-04   1.000 3.73957e-03 1.30211e-03
        179    18 -109.025822 -109.026484 6.621817e-04   1.000 3.71190e-03 1.25966e-03
        180    20 -109.025738 -109.026042 3.045548e-04   1.000 3.68143e-03 1.22925e-03
        181    20 -109.025665 -109.025522 1.430313e-04   1.000 3.65073e-03 1.19683e-03
        182    20 -109.025605 -109.024964 6.413033e-04   1.000 3.62179e-03 1.15647e-03
        183    20 -109.025554 -109.024441 1.112905e-03   1.000 3.59694e-03 1.11739e-03
        184    22 -109.025538 -109.024016 1.521989e-03   1.000 3.58054e-03 1.05712e-03
        185    20 -109.025528 -109.023587 1.941117e-03   1.000 3.56575e-03 1.01039e-03
        186    21 -109.025547 -109.023207 2.340474e-03   1.000 3.51528e-03 9.94117e-04
        187    20 -109.025582 -109.023089 2.493512e-03   1.000 3.28122e-03 1.45537e-03
        188    18 -109.025634 -109.024131 1.502888e-03   1.000 3.09654e-03 1.44039e-03
        189    18 -109.025588 -109.024765 8.227508e-04   1.000 2.95410e-03 1.59394e-03
        190    18 -109.025583 -109.025448 1.348163e-04   1.000 2.93183e-03 1.61814e-03
        191    18 -109.025588 -109.026094 5.063976e-04   1.000 2.93238e-03 1.53730e-03
        192    18 -109.025589 -109.026662 1.072771e-03   1.000 2.93248e-03 1.37369e-03
        193    18 -109.025580 -109.027037 1.457078e-03   1.000 2.92284e-03 1.17172e-03
        194    18 -109.025552 -109.027192 1.640137e-03   1.000 2.89970e-03 9.79698e-04
        195    20 -109.025503 -109.027136 1.633167e-03   1.000 2.86251e-03 8.41092e-04
        196    20 -109.025435 -109.026914 1.478793e-03   1.000 2.81420e-03 7.76634e-04
        197    20 -109.025349 -109.026587 1.238419e-03   1.000 2.76308e-03 7.70710e-04
        198    20 -109.025258 -109.026205 9.471403e-04   1.000 2.71823e-03 7.86881e-04
        199    20 -109.025162 -109.025812 6.494804e-04   1.000 2.68750e-03 7.95206e-04
        200    21 -109.025090 -109.025445 3.552399e-04   1.000 2.67243e-03 7.81820e-04
        201    20 -109.025032 -109.025126 9.383080e-05   1.000 2.67043e-03 7.46451e-04
        202    21 -109.024988 -109.024862 1.259405e-04   1.000 2.67061e-03 6.98319e-04
        203    26 -109.024972 -109.024667 3.046637e-04   1.000 2.64944e-03 7.29887e-04
        204    21 -109.024977 -109.024693 2.834097e-04   1.000 2.63283e-03 6.25950e-04
        205    26 -109.024989 -109.024614 3.753841e-04   1.000 2.61132e-03 6.06123e-04
        206    20 -109.025019 -109.024533 4.856725e-04   1.000 2.58641e-03 5.93970e-04
        207    21 -109.025053 -109.024416 6.363132e-04   1.000 2.56278e-03 5.81273e-04
        208    26 -109.025085 -109.024280 8.043146e-04   1.000 2.54404e-03 5.60766e-04
        209    20 -109.025120 -109.024136 9.831411e-04   1.000 2.53113e-03 5.30263e-04
        210    21 -109.025145 -109.023975 1.169309e-03   1.000 2.52308e-03 4.94312e-04
        211    25 -109.025166 -109.023826 1.340378e-03   1.000 2.51636e-03 4.62016e-04
        212    22 -109.025183 -109.023701 1.481132e-03   1.000 2.50910e-03 4.42424e-04
        213    26 -109.025190 -109.023593 1.597751e-03   1.000 2.49990e-03 4.39574e-04
        214    22 -109.025195 -109.023524 1.671041e-03   1.000 2.48857e-03 4.49939e-04
        215    26 -109.025194 -109.023475 1.719054e-03   1.000 2.47633e-03 4.65643e-04
        216    22 -109.025193 -109.023464 1.728974e-03   1.000 2.44552e-03 4.90129e-04
        217    22 -109.025197 -109.023501 1.696777e-03   1.000 2.35843e-03 5.56962e-04
        218    22 -109.025232 -109.023647 1.584712e-03   1.000 2.26335e-03 6.25860e-04
        219    21 -109.025280 -109.023753 1.527057e-03   1.000 2.22030e-03 5.53931e-04
        220    22 -109.025306 -109.023730 1.575656e-03   1.000 2.20043e-03 4.93743e-04
        221    22 -109.025309 -109.023728 1.581159e-03   1.000 2.18182e-03 4.73455e-04
        222    25 -109.025300 -109.023769 1.530953e-03   1.000 2.16837e-03 4.72362e-04
        223    22 -109.025294 -109.023848 1.446618e-03   1.000 2.16204e-03 4.67363e-04
        224    22 -109.025291 -109.023938 1.353886e-03   1.000 2.15916e-03 4.60803e-04
        225    22 -109.025296 -109.024022 1.273460e-03   1.000 2.15497e-03 4.58073e-04
        226    22 -109.025303 -109.024089 1.214452e-03   1.000 2.14829e-03 4.58075e-04
        227    26 -109.025311 -109.024139 1.172029e-03   1.000 2.13977e-03 4.58800e-04
        228    22 -109.025321 -109.024181 1.140448e-03   1.000 2.12965e-03 4.60341e-04
        229    22 -109.025327 -109.024219 1.108074e-03   1.000 2.11884e-03 4.63335e-04
        230    22 -109.025329 -109.024264 1.065035e-03   1.000 2.10833e-03 4.67708e-04
        231    22 -109.025328 -109.024318 1.010550e-03   1.000 2.09863e-03 4.72884e-04
        232    22 -109.025324 -109.024380 9.440107e-04   1.000 2.08993e-03 4.78266e-04
        233    22 -109.025318 -109.024449 8.685703e-04   1.000 2.08219e-03 4.83333e-04
        234    22 -109.025309 -109.024522 7.866691e-04   1.000 2.07534e-03 4.87695e-04
        235    20 -109.025298 -109.024596 7.018743e-04   1.000 2.06896e-03 4.91224e-04
        236    21 -109.025289 -109.024669 6.203968e-04   1.000 2.06195e-03 4.94092e-04
        237    22 -109.025278 -109.024739 5.389501e-04   1.000 2.05461e-03 4.96680e-04
        238    21 -109.025267 -109.024805 4.614538e-04   1.000 2.04683e-03 4.99382e-04
        239    21 -109.025257 -109.024867 3.898717e-04   1.000 2.03805e-03 5.02464e-04
        240    21 -109.025248 -109.024924 3.243791e-04   1.000 2.02864e-03 5.05979e-04
        241    20 -109.025240 -109.024974 2.663140e-04   1.000 2.01869e-03 5.09763e-04
        242    21 -109.025231 -109.025016 2.148380e-04   1.000 2.00865e-03 5.13523e-04
        243    21 -109.025227 -109.025051 1.758494e-04   1.000 1.99816e-03 5.16936e-04
        244    20 -109.025219 -109.025076 1.425890e-04   1.000 1.98813e-03 5.19746e-04
        245    22 -109.025209 -109.025091 1.178456e-04   1.000 1.97827e-03 5.21824e-04
        246    22 -109.025202 -109.025096 1.054523e-04   1.000 1.96879e-03 5.23188e-04
        247    21 -109.025191 -109.025091 1.001976e-04   1.000 1.95975e-03 5.23982e-04
        248    22 -109.025186 -109.025076 1.093859e-04   1.000 1.95044e-03 5.24412e-04
        249    22 -109.025178 -109.025052 1.256948e-04   1.000 1.94169e-03 5.24717e-04
        250    20 -109.025169 -109.025021 1.478399e-04   1.000 1.93328e-03 5.25119e-04
        251    21 -109.025161 -109.024983 1.773798e-04   1.000 1.92492e-03 5.25768e-04
        252    20 -109.025156 -109.024941 2.154553e-04   1.000 1.91651e-03 5.26758e-04
        253    20 -109.025152 -109.024895 2.573145e-04   1.000 1.90840e-03 5.28105e-04
        254    20 -109.025146 -109.024847 2.996475e-04   1.000 1.90054e-03 5.29764e-04
        255    22 -109.025143 -109.024798 3.445029e-04   1.000 1.89280e-03 5.31647e-04
        256    22 -109.025139 -109.024750 3.891679e-04   1.000 1.88519e-03 5.33643e-04
        257    20 -109.025139 -109.024705 4.346286e-04   1.000 1.87773e-03 5.35645e-04
        258    21 -109.025135 -109.024661 4.742454e-04   1.000 1.87059e-03 5.37554e-04
        259    20 -109.025135 -109.024621 5.139815e-04   1.000 1.86337e-03 5.39308e-04
        260    20 -109.025139 -109.024585 5.532688e-04   1.000 1.85595e-03 5.40877e-04
        261    21 -109.025142 -109.024553 5.883148e-04   1.000 1.84869e-03 5.42257e-04
        262    20 -109.025141 -109.024526 6.153948e-04   1.000 1.84181e-03 5.43472e-04
        263    22 -109.025143 -109.024502 6.408660e-04   1.000 1.83454e-03 5.44551e-04
        264    20 -109.025145 -109.024484 6.612367e-04   1.000 1.82744e-03 5.45523e-04
        265    20 -109.025146 -109.024470 6.764743e-04   1.000 1.82037e-03 5.46403e-04
        266    21 -109.025150 -109.024461 6.899275e-04   1.000 1.81294e-03 5.47193e-04
        267    20 -109.025152 -109.024455 6.967936e-04   1.000 1.80574e-03 5.47877e-04
        268    21 -109.025155 -109.024454 7.014162e-04   1.000 1.79834e-03 5.48427e-04
        269    20 -109.025152 -109.024455 6.974337e-04   1.000 1.79149e-03 5.48818e-04
        270    21 -109.025153 -109.024460 6.926102e-04   1.000 1.78444e-03 5.49024e-04
        271    21 -109.025153 -109.024468 6.852104e-04   1.000 1.77741e-03 5.49035e-04
        272    21 -109.025158 -109.024479 6.788839e-04   1.000 1.76998e-03 5.48853e-04
        273    20 -109.025159 -109.024492 6.672752e-04   1.000 1.76299e-03 5.48496e-04
        274    20 -109.025154 -109.024506 6.479708e-04   1.000 1.75661e-03 5.47992e-04
        275    21 -109.025158 -109.024523 6.350799e-04   1.000 1.74946e-03 5.47373e-04
        276    20 -109.025156 -109.024541 6.150319e-04   1.000 1.74290e-03 5.46672e-04
        277    20 -109.025158 -109.024561 5.972827e-04   1.000 1.73623e-03 5.45917e-04
        278    21 -109.025157 -109.024582 5.746347e-04   1.000 1.72974e-03 5.45127e-04
        279    20 -109.025155 -109.024604 5.513140e-04   1.000 1.72338e-03 5.44313e-04
        280    21 -109.025150 -109.024626 5.240775e-04   1.000 1.71739e-03 5.43475e-04
        281    21 -109.025153 -109.024650 5.027523e-04   1.000 1.71065e-03 5.42607e-04
        282    21 -109.025149 -109.024673 4.761291e-04   1.000 1.70450e-03 5.41694e-04
        283    21 -109.025147 -109.024697 4.504508e-04   1.000 1.69823e-03 5.40724e-04
        284    20 -109.025144 -109.024721 4.235235e-04   1.000 1.69207e-03 5.39682e-04
        285    21 -109.025141 -109.024743 3.973419e-04   1.000 1.68598e-03 5.38554e-04
        286    21 -109.025136 -109.024765 3.707848e-04   1.000 1.67999e-03 5.37331e-04
        287    21 -109.025130 -109.024786 3.436856e-04   1.000 1.67422e-03 5.36007e-04
        288    20 -109.025128 -109.024806 3.217654e-04   1.000 1.66806e-03 5.34577e-04
        289    20 -109.025124 -109.024824 3.000124e-04   1.000 1.66197e-03 5.33039e-04
        290    21 -109.025116 -109.024839 2.768613e-04   1.000 1.65637e-03 5.31393e-04
        291    20 -109.025113 -109.024853 2.596798e-04   1.000 1.65031e-03 5.29641e-04
        292    21 -109.025112 -109.024864 2.475243e-04   1.000 1.64409e-03 5.27783e-04
        293    20 -109.025106 -109.024873 2.336049e-04   1.000 1.63828e-03 5.25820e-04
        294    20 -109.025098 -109.024878 2.203042e-04   1.000 1.63286e-03 5.23756e-04
        295    20 -109.025094 -109.024881 2.127630e-04   1.000 1.62723e-03 5.21593e-04
        296    20 -109.025089 -109.024882 2.077130e-04   1.000 1.62159e-03 5.19337e-04
        297    20 -109.025086 -109.024880 2.066360e-04   1.000 1.61595e-03 5.16993e-04
        298    20 -109.025081 -109.024875 2.059994e-04   1.000 1.61064e-03 5.14568e-04
        299    21 -109.025079 -109.024869 2.106910e-04   1.000 1.60506e-03 5.12071e-04
        300    20 -109.025073 -109.024860 2.135435e-04   1.000 1.60009e-03 5.09508e-04
        301    20 -109.025071 -109.024850 2.211995e-04   1.000 1.59487e-03 5.06888e-04
        302    20 -109.025065 -109.024838 2.273636e-04   1.000 1.58998e-03 5.04219e-04
        303    20 -109.025063 -109.024825 2.382179e-04   1.000 1.58478e-03 5.01505e-04
        304    20 -109.025060 -109.024812 2.481138e-04   1.000 1.58013e-03 4.98750e-04
        305    21 -109.025060 -109.024798 2.615727e-04   1.000 1.57498e-03 4.95956e-04
        306    21 -109.025058 -109.024784 2.736979e-04   1.000 1.57018e-03 4.93124e-04
        307    21 -109.025054 -109.024770 2.838089e-04   1.000 1.56574e-03 4.90253e-04
        308    21 -109.025053 -109.024757 2.957200e-04   1.000 1.56107e-03 4.87341e-04
        309    21 -109.025051 -109.024745 3.067713e-04   1.000 1.55653e-03 4.84386e-04
        310    21 -109.025049 -109.024733 3.156272e-04   1.000 1.55227e-03 4.81386e-04
        311    21 -109.025045 -109.024722 3.227683e-04   1.000 1.54820e-03 4.78340e-04
        312    21 -109.025046 -109.024713 3.334382e-04   1.000 1.54300e-03 4.75528e-04
        313    21 -109.025042 -109.024716 3.254427e-04   1.000 1.53747e-03 4.75164e-04
        314    20 -109.025042 -109.024757 2.847385e-04   1.000 1.53075e-03 4.72446e-04
        315    22 -109.025038 -109.024784 2.539422e-04   1.000 1.52411e-03 4.69095e-04
        316    20 -109.025036 -109.024788 2.487411e-04   1.000 1.51810e-03 4.66942e-04
        317    21 -109.025032 -109.024781 2.507962e-04   1.000 1.51325e-03 4.64291e-04
        318    20 -109.025030 -109.024769 2.612337e-04   1.000 1.50889e-03 4.61065e-04
        319    21 -109.025031 -109.024754 2.767023e-04   1.000 1.50474e-03 4.57298e-04
        320    21 -109.025025 -109.024737 2.882142e-04   1.000 1.50159e-03 4.53091e-04
        321    20 -109.025025 -109.024720 3.045329e-04   1.000 1.49797e-03 4.48582e-04
        322    20 -109.025023 -109.024703 3.206278e-04   1.000 1.49441e-03 4.43917e-04
        323    21 -109.025025 -109.024684 3.404213e-04   1.000 1.49032e-03 4.39225e-04
        324    22 -109.025024 -109.024664 3.598611e-04   1.000 1.48645e-03 4.34603e-04
        325    20 -109.025024 -109.024643 3.808094e-04   1.000 1.48275e-03 4.30110e-04
        326    21 -109.025023 -109.024622 4.012337e-04   1.000 1.47912e-03 4.25763e-04
        327    21 -109.025024 -109.024603 4.212040e-04   1.000 1.47557e-03 4.21551e-04
        328    21 -109.025027 -109.024587 4.397315e-04   1.000 1.47198e-03 4.17435e-04
        329    20 -109.025028 -109.024577 4.507672e-04   1.000 1.46886e-03 4.13371e-04
        330    22 -109.025027 -109.024572 4.549183e-04   1.000 1.44692e-03 4.25034e-04
        331    21 -109.025032 -109.024648 3.840473e-04   1.000 1.42261e-03 4.61124e-04
        332    26 -109.025044 -109.024808 2.353208e-04   1.000 1.40526e-03 4.37409e-04
        333    25 -109.025044 -109.024887 1.565992e-04   1.000 1.39853e-03 4.32806e-04
        334    26 -109.025038 -109.024947 9.128616e-05   1.000 1.39602e-03 4.26324e-04
        335    26 -109.025030 -109.024981 4.873021e-05   1.000 1.39447e-03 4.20067e-04
        336    26 -109.025021 -109.024993 2.786412e-05   1.000 1.39307e-03 4.13326e-04
        337    26 -109.025012 -109.024989 2.316988e-05   1.000 1.39178e-03 4.05558e-04
        338    25 -109.025003 -109.024976 2.716850e-05   1.000 1.39071e-03 3.96889e-04
        339    26 -109.024995 -109.024961 3.407484e-05   1.000 1.35079e-03 4.65326e-04
        340    26 -109.024999 -109.025113 1.148040e-04   1.000 1.32945e-03 4.28219e-04
        341    26 -109.024997 -109.025210 2.125325e-04   1.000 1.31845e-03 4.22242e-04
        342    26 -109.024987 -109.025255 2.678075e-04   1.000 1.31520e-03 4.12175e-04
        343    26 -109.024972 -109.025263 2.909699e-04   1.000 1.31523e-03 4.00598e-04
        344    26 -109.024959 -109.025238 2.791083e-04   1.000 1.31676e-03 3.88668e-04
        345    26 -109.024947 -109.025185 2.382223e-04   1.000 1.31865e-03 3.76088e-04
        346    25 -109.024937 -109.025115 1.779240e-04   1.000 1.31988e-03 3.63082e-04
        347    26 -109.024928 -109.025036 1.080226e-04   1.000 1.31967e-03 3.50490e-04
        348    26 -109.024920 -109.024955 3.480713e-05   1.000 1.31764e-03 3.39364e-04
        349    26 -109.024913 -109.024875 3.816427e-05   1.000 1.31373e-03 3.30573e-04
        350    26 -109.024908 -109.024798 1.099594e-04   1.000 1.30806e-03 3.24506e-04
        351    26 -109.024905 -109.024725 1.801033e-04   1.000 1.30090e-03 3.20956e-04
        352    26 -109.024904 -109.024655 2.482736e-04   1.000 1.29260e-03 3.19194e-04
        353    26 -109.024904 -109.024591 3.134671e-04   1.000 1.28362e-03 3.18217e-04
        354    26 -109.024907 -109.024533 3.737932e-04   1.000 1.27442e-03 3.17044e-04
        355    26 -109.024910 -109.024483 4.272455e-04   1.000 1.26546e-03 3.14957e-04
        356    26 -109.024915 -109.024443 4.715236e-04   1.000 1.25704e-03 3.11610e-04
        357    26 -109.024920 -109.024416 5.046601e-04   1.000 1.24932e-03 3.07026e-04
        358    26 -109.024926 -109.024401 5.248889e-04   1.000 1.24228e-03 3.01493e-04
        359    26 -109.024931 -109.024400 5.316684e-04   1.000 1.23592e-03 2.95439e-04
        360    26 -109.024937 -109.024412 5.247823e-04   1.000 1.23010e-03 2.89293e-04
        361    26 -109.024941 -109.024436 5.048179e-04   1.000 1.20578e-03 3.19711e-04
        362    26 -109.024951 -109.024569 3.824542e-04   1.000 1.19174e-03 3.15266e-04
        363    25 -109.024962 -109.024727 2.352109e-04   1.000 1.17820e-03 3.08889e-04
        364    26 -109.024969 -109.024874 9.484969e-05   1.000 1.15510e-03 3.77106e-04
        365    26 -109.024979 -109.025144 1.649796e-04   1.000 1.14678e-03 3.33227e-04
        366    26 -109.024981 -109.025329 3.471611e-04   1.000 1.14766e-03 3.35714e-04
        367    25 -109.024977 -109.025479 5.019582e-04   1.000 1.15406e-03 3.31522e-04
        368    26 -109.024967 -109.025587 6.196147e-04   1.000 1.16263e-03 3.25305e-04
        369    26 -109.024955 -109.025651 6.965438e-04   1.000 1.17141e-03 3.18562e-04
        370    26 -109.024941 -109.025675 7.341591e-04   1.000 1.17963e-03 3.10406e-04
        371    26 -109.024926 -109.025664 7.382233e-04   1.000 1.18670e-03 2.99918e-04
        372    26 -109.024910 -109.025625 7.157954e-04   1.000 1.19225e-03 2.87328e-04
        373    26 -109.024893 -109.025567 6.741378e-04   1.000 1.19594e-03 2.73839e-04
        374    25 -109.024878 -109.025496 6.183551e-04   1.000 1.19777e-03 2.60957e-04
        375    26 -109.024861 -109.025417 5.562345e-04   1.000 1.19714e-03 2.49895e-04
        376    26 -109.024845 -109.025333 4.873293e-04   1.000 1.19456e-03 2.41252e-04
        377    26 -109.024832 -109.025246 4.140610e-04   1.000 1.18984e-03 2.34975e-04
        378    26 -109.024820 -109.025157 3.373190e-04   1.000 1.18310e-03 2.30546e-04
        379    26 -109.024809 -109.025067 2.580417e-04   1.000 1.17447e-03 2.27271e-04
        380    25 -109.024800 -109.024979 1.781400e-04   1.000 1.16415e-03 2.24516e-04
        381    26 -109.024795 -109.024893 9.805335e-05   1.000 1.15294e-03 2.21837e-04
        382    26 -109.024791 -109.024814 2.282989e-05   1.000 1.14083e-03 2.18987e-04
        383    26 -109.024789 -109.024743 4.515350e-05   1.000 1.12840e-03 2.15865e-04
        384    26 -109.024788 -109.024685 1.028831e-04   1.000 1.11609e-03 2.12465e-04
        385    26 -109.024789 -109.024641 1.480839e-04   1.000 1.10425e-03 2.08832e-04
        386    26 -109.024791 -109.024611 1.798596e-04   1.000 1.09326e-03 2.04769e-04
        387    26 -109.024793 -109.024602 1.911494e-04   1.000 1.08323e-03 2.00260e-04
        388    26 -109.024796 -109.024608 1.883176e-04   1.000 1.07441e-03 1.95805e-04
        389    26 -109.024799 -109.024624 1.752485e-04   1.000 1.06661e-03 1.91814e-04
        390    26 -109.024802 -109.024646 1.562421e-04   1.000 1.05989e-03 1.88348e-04
        391    26 -109.024805 -109.024671 1.339919e-04   1.000 1.05412e-03 1.85301e-04
        392    26 -109.024807 -109.024696 1.105609e-04   1.000 1.04913e-03 1.82498e-04
        393    26 -109.024808 -109.024721 8.792658e-05   1.000 1.04488e-03 1.79780e-04
        394    26 -109.024809 -109.024743 6.648674e-05   1.000 1.04108e-03 1.77047e-04
        395    26 -109.024809 -109.024762 4.763992e-05   1.000 1.03774e-03 1.74276e-04
        396    26 -109.024809 -109.024777 3.168493e-05   1.000 1.03468e-03 1.71493e-04
        397    26 -109.024808 -109.024788 1.914251e-05   1.000 1.03178e-03 1.68743e-04
        398    26 -109.024806 -109.024795 1.036505e-05   1.000 1.02894e-03 1.66046e-04
        399    26 -109.024803 -109.024798 5.494757e-06   1.000 1.02606e-03 1.63390e-04
        400    26 -109.024801 -109.024796 4.707405e-06   1.000 1.02309e-03 1.60725e-04
        401    26 -109.024797 -109.024790 7.589981e-06   1.000 1.01993e-03 1.57986e-04
        402    26 -109.024794 -109.024780 1.396663e-05   1.000 1.01656e-03 1.55115e-04
        403    26 -109.024790 -109.024767 2.327801e-05   1.000 1.01292e-03 1.52076e-04
        404    26 -109.024787 -109.024752 3.500127e-05   1.000 1.00899e-03 1.48871e-04
        405    28 -109.024783 -109.024735 4.793835e-05   1.000 1.00477e-03 1.45535e-04
        406    26 -109.024780 -109.024717 6.231132e-05   1.000 1.00012e-03 1.42127e-04
        407    26 -109.024777 -109.024698 7.820702e-05   1.000 9.95210e-04 1.38719e-04
        408    26 -109.024774 -109.024680 9.344601e-05   1.000 9.89950e-04 1.35407e-04
        409    26 -109.024772 -109.024663 1.081817e-04   1.000 9.84430e-04 1.32268e-04
        410    26 -109.024770 -109.024648 1.215373e-04   1.000 9.78646e-04 1.29374e-04
        411    26 -109.024768 -109.024635 1.332100e-04   1.000 9.72684e-04 1.26777e-04
        412    26 -109.024767 -109.024625 1.426175e-04   1.000 9.66579e-04 1.24506e-04
        413    28 -109.024766 -109.024617 1.488879e-04   1.000 9.60420e-04 1.22562e-04
        414    26 -109.024766 -109.024614 1.523156e-04   1.000 9.54172e-04 1.20911e-04
        415    28 -109.024765 -109.024612 1.530392e-04   1.000 9.48023e-04 1.19498e-04
        416    26 -109.024766 -109.024616 1.500241e-04   1.000 9.41912e-04 1.18260e-04
        417    26 -109.024766 -109.024621 1.446280e-04   1.000 9.35966e-04 1.17115e-04
        418    26 -109.024766 -109.024630 1.353793e-04   1.000 9.30166e-04 1.16007e-04
        419    28 -109.024765 -109.024642 1.227173e-04   1.000 9.24585e-04 1.14879e-04
        420    28 -109.024764 -109.024657 1.069874e-04   1.000 9.19138e-04 1.13689e-04
        421    26 -109.024764 -109.024674 9.022940e-05   1.000 9.13906e-04 1.12461e-04
        422    28 -109.024762 -109.024690 7.226404e-05   1.000 9.08920e-04 1.11176e-04
        423    26 -109.024761 -109.024708 5.284314e-05   1.000 9.04076e-04 1.09867e-04
        424    28 -109.024759 -109.024725 3.395033e-05   1.000 8.99475e-04 1.08557e-04
        425    26 -109.024757 -109.024742 1.471676e-05   1.000 8.94970e-04 1.07275e-04
        426    28 -109.024754 -109.024757 2.905289e-06   1.000 8.90696e-04 1.06037e-04
        427    28 -109.024751 -109.024771 2.008986e-05   1.000 8.86479e-04 1.04850e-04
        428    28 -109.024748 -109.024783 3.492149e-05   1.000 8.82400e-04 1.03731e-04
        429    28 -109.024745 -109.024792 4.746262e-05   1.000 8.78444e-04 1.02667e-04
        430    28 -109.024742 -109.024799 5.751795e-05   1.000 8.74558e-04 1.01646e-04
        431    28 -109.024738 -109.024803 6.498465e-05   1.000 8.70738e-04 1.00652e-04
        432    28 -109.024734 -109.024804 6.974893e-05   1.000 8.66964e-04 9.96700e-05
        433    28 -109.024731 -109.024803 7.189383e-05   1.000 8.63263e-04 9.86879e-05
        434    28 -109.024727 -109.024799 7.146968e-05   1.000 8.59564e-04 9.76975e-05
        435    28 -109.024724 -109.024793 6.859300e-05   1.000 8.55875e-04 9.66967e-05
        436    28 -109.024721 -109.024784 6.347711e-05   1.000 8.52132e-04 9.56887e-05
        437    28 -109.024718 -109.024774 5.630657e-05   1.000 8.48388e-04 9.46819e-05
        438    28 -109.024715 -109.024762 4.743276e-05   1.000 8.44630e-04 9.36883e-05
        439    28 -109.024713 -109.024750 3.698728e-05   1.000 8.40767e-04 9.27214e-05
        440    28 -109.024710 -109.024736 2.537388e-05   1.000 8.36841e-04 9.17953e-05
        441    28 -109.024708 -109.024721 1.290424e-05   1.000 8.32838e-04 9.09222e-05
        442    28 -109.024707 -109.024706 1.412561e-07   1.000 8.28731e-04 9.01114e-05
        443    28 -109.024705 -109.024692 1.342952e-05   1.000 8.24544e-04 8.93681e-05
        444    28 -109.024704 -109.024677 2.662072e-05   1.000 8.20300e-04 8.86933e-05
        445    28 -109.024703 -109.024663 3.950559e-05   1.000 8.15966e-04 8.80841e-05
        446    28 -109.024702 -109.024650 5.176246e-05   1.000 8.11572e-04 8.75341e-05
        447    28 -109.024701 -109.024638 6.322454e-05   1.000 8.07139e-04 8.70347e-05
        448    28 -109.024701 -109.024627 7.368276e-05   1.000 8.02677e-04 8.65764e-05
        449    28 -109.024701 -109.024618 8.296197e-05   1.000 7.98210e-04 8.61499e-05
        450    28 -109.024700 -109.024609 9.098504e-05   1.000 7.93749e-04 8.57475e-05
        451    28 -109.024700 -109.024603 9.760250e-05   1.000 7.89324e-04 8.53633e-05
        452    28 -109.024700 -109.024597 1.028214e-04   1.000 7.84944e-04 8.49943e-05
        453    28 -109.024700 -109.024593 1.065975e-04   1.000 7.80619e-04 8.46394e-05
        454    28 -109.024700 -109.024591 1.089326e-04   1.000 7.76378e-04 8.42999e-05
        455    28 -109.024700 -109.024590 1.099454e-04   1.000 7.72191e-04 8.39783e-05
        456    28 -109.024699 -109.024590 1.096613e-04   1.000 7.67897e-04 8.48014e-05
        457    28 -109.024699 -109.024598 1.004771e-04   1.000 7.64231e-04 8.55816e-05
        458    28 -109.024698 -109.024609 8.836533e-05   1.000 7.60724e-04 8.40058e-05
        459    28 -109.024696 -109.024610 8.642442e-05   1.000 7.56827e-04 8.40076e-05
        460    28 -109.024694 -109.024608 8.574578e-05   1.000 7.52735e-04 8.39354e-05
        461    28 -109.024692 -109.024608 8.486271e-05   1.000 7.48649e-04 8.37404e-05
        462    28 -109.024691 -109.024607 8.336474e-05   1.000 7.44759e-04 8.34214e-05
        463    28 -109.024689 -109.024608 8.133875e-05   1.000 7.41086e-04 8.30395e-05
        464    28 -109.024688 -109.024609 7.918768e-05   1.000 7.37631e-04 8.26686e-05
        465    28 -109.024687 -109.024610 7.722303e-05   1.000 7.34365e-04 8.23570e-05
        466    28 -109.024686 -109.024611 7.553719e-05   1.000 7.31274e-04 8.21175e-05
        467    28 -109.024685 -109.024611 7.419100e-05   1.000 7.28261e-04 8.19333e-05
        468    26 -109.024685 -109.024612 7.333074e-05   1.000 7.25350e-04 8.17771e-05
        469    28 -109.024684 -109.024611 7.259708e-05   1.000 7.22543e-04 8.15924e-05
        470    28 -109.024683 -109.024612 7.127768e-05   1.000 7.19710e-04 8.13525e-05
        471    26 -109.024683 -109.024612 7.067741e-05   1.000 7.16837e-04 8.10661e-05
        472    28 -109.024682 -109.024612 7.012107e-05   1.000 7.13995e-04 8.07248e-05
        473    26 -109.024681 -109.024612 6.925542e-05   1.000 7.11011e-04 8.03647e-05
        474    26 -109.024680 -109.024611 6.906503e-05   1.000 7.07993e-04 8.00118e-05
        475    26 -109.024679 -109.024611 6.835409e-05   1.000 7.04881e-04 7.97028e-05
        476    26 -109.024678 -109.024611 6.758711e-05   1.000 7.01689e-04 7.94468e-05
        477    26 -109.024677 -109.024610 6.680750e-05   1.000 6.98447e-04 7.92432e-05
        478    26 -109.024676 -109.024610 6.591086e-05   1.000 6.95154e-04 7.90790e-05
        479    26 -109.024674 -109.024609 6.509660e-05   1.000 6.91861e-04 7.89347e-05
        480    26 -109.024673 -109.024609 6.423907e-05   1.000 6.88568e-04 7.87910e-05
        481    26 -109.024672 -109.024608 6.353252e-05   1.000 6.85335e-04 7.86334e-05
        482    26 -109.024671 -109.024608 6.268801e-05   1.000 6.82143e-04 7.84548e-05
        483    26 -109.024670 -109.024608 6.191671e-05   1.000 6.79045e-04 7.82550e-05
        484    28 -109.024668 -109.024608 6.069907e-05   1.000 6.76063e-04 7.80431e-05
        485    26 -109.024668 -109.024609 5.927015e-05   1.000 6.73097e-04 7.78142e-05
        486    26 -109.024667 -109.024609 5.831463e-05   1.000 6.70286e-04 7.75745e-05
        487    26 -109.024666 -109.024610 5.669352e-05   1.000 6.67562e-04 7.73336e-05
        488    26 -109.024665 -109.024611 5.484920e-05   1.000 6.64932e-04 7.70850e-05
        489    26 -109.024665 -109.024612 5.262125e-05   1.000 6.62371e-04 7.68250e-05
        490    26 -109.024664 -109.024614 5.027735e-05   1.000 6.59890e-04 7.65494e-05
        491    26 -109.024663 -109.024615 4.782415e-05   1.000 6.57471e-04 7.62554e-05
        492    26 -109.024662 -109.024617 4.540913e-05   1.000 6.55100e-04 7.59420e-05
        493    26 -109.024661 -109.024618 4.316327e-05   1.000 6.52768e-04 7.56103e-05
        494    26 -109.024660 -109.024619 4.123528e-05   1.000 6.50471e-04 7.52630e-05
        495    26 -109.024659 -109.024619 3.969210e-05   1.000 6.48191e-04 7.49033e-05
        496    26 -109.024658 -109.024619 3.865429e-05   1.000 6.45924e-04 7.45340e-05
        497    26 -109.024657 -109.024618 3.822046e-05   1.000 6.43668e-04 7.41567e-05
        498    26 -109.024655 -109.024617 3.838043e-05   1.000 6.41418e-04 7.37717e-05
        499    26 -109.024654 -109.024615 3.923658e-05   1.000 6.39178e-04 7.33784e-05

        ==> Orbital Optimization <==

            Orbital Optimization converged in  11 iterations 
            Total energy change: -3.791201e-02
            Final gradient norm: 2.299103e-05

        500    28 -109.062565 -108.977471 8.509333e-02   1.000 6.36973e-04 7.29801e-05
        501    40 -109.114265 -108.610989 5.032753e-01   1.000 1.45358e-01 1.77871e-01
        502    21 -109.132750 -108.928553 2.041968e-01   1.000 1.73402e-01 1.02682e-01
        503    19 -109.145772 -109.149884 4.112132e-03   1.000 1.25405e-01 8.61075e-02
        504    17 -109.150290 -109.173333 2.304345e-02   1.000 8.92073e-02 7.50968e-02
        505    17 -109.141699 -109.102065 3.963436e-02   1.000 8.41778e-02 5.81878e-02
        506    17 -109.127641 -109.043986 8.365468e-02   1.000 7.70155e-02 4.79222e-02
        507    17 -109.118456 -109.041703 7.675369e-02   1.000 6.95632e-02 4.12564e-02
        508    17 -109.108324 -109.070743 3.758030e-02   1.000 6.52771e-02 3.59656e-02
        509    17 -109.097487 -109.123761 2.627376e-02   1.000 6.40430e-02 3.00287e-02
        510    17 -109.091031 -109.191559 1.005280e-01   1.000 6.10559e-02 2.79181e-02
        511    17 -109.089392 -109.238074 1.486815e-01   1.000 5.11902e-02 2.81646e-02
        512    17 -109.097151 -109.264293 1.671421e-01   1.000 3.35055e-02 2.85010e-02
        513    17 -109.095399 -109.274234 1.788352e-01   1.000 2.75788e-02 2.76651e-02
        514    17 -109.093381 -109.264666 1.712845e-01   1.000 2.85126e-02 2.60431e-02
        515    17 -109.088968 -109.247708 1.587396e-01   1.000 2.92864e-02 2.38276e-02
        516    17 -109.084418 -109.226391 1.419727e-01   1.000 2.96896e-02 2.16167e-02
        517    18 -109.081142 -109.204682 1.235402e-01   1.000 3.08337e-02 1.90533e-02
        518    18 -109.074120 -109.183200 1.090800e-01   1.000 2.38192e-02 1.74918e-02
        519    21 -109.072202 -109.167051 9.484876e-02   1.000 2.27044e-02 1.55635e-02
        520    21 -109.072271 -109.151517 7.924613e-02   1.000 2.23758e-02 1.38411e-02
        521    21 -109.072871 -109.132230 5.935860e-02   1.000 2.26117e-02 1.27305e-02
        522    20 -109.073274 -109.113507 4.023249e-02   1.000 2.23171e-02 1.17706e-02
        523    20 -109.072045 -109.097908 2.586272e-02   1.000 1.93836e-02 1.23124e-02
        524    21 -109.073707 -109.089805 1.609791e-02   1.000 1.77632e-02 1.16603e-02
        525    19 -109.075587 -109.080834 5.246746e-03   1.000 1.62573e-02 1.19375e-02
        526    18 -109.077383 -109.074377 3.005812e-03   1.000 1.60171e-02 1.03246e-02
        527    19 -109.077340 -109.067693 9.647025e-03   1.000 1.59456e-02 9.10111e-03
        528    18 -109.076908 -109.067301 9.606658e-03   1.000 1.61027e-02 7.69586e-03
        529    18 -109.077210 -109.069673 7.537266e-03   1.000 1.56143e-02 7.02324e-03
        530    18 -109.078007 -109.070873 7.134610e-03   1.000 1.46579e-02 7.17133e-03
        531    18 -109.078977 -109.069900 9.077311e-03   1.000 1.36363e-02 7.61015e-03
        532    19 -109.079918 -109.066915 1.300282e-02   1.000 1.28595e-02 7.93880e-03
        533    19 -109.080747 -109.063142 1.760518e-02   1.000 1.24352e-02 7.99764e-03
        534    19 -109.081461 -109.058691 2.277015e-02   1.000 1.22568e-02 7.86654e-03
        535    18 -109.082089 -109.054479 2.761053e-02   1.000 1.21272e-02 7.65338e-03
        536    18 -109.082691 -109.050764 3.192725e-02   1.000 1.19250e-02 7.44266e-03
        537    18 -109.083313 -109.048217 3.509567e-02   1.000 1.16219e-02 7.25584e-03
        538    18 -109.082975 -109.047084 3.589127e-02   1.000 1.07943e-02 7.13128e-03
        539    19 -109.083726 -109.048032 3.569466e-02   1.000 1.05870e-02 6.81357e-03
        540    19 -109.084590 -109.049479 3.511070e-02   1.000 1.04709e-02 6.46096e-03
        541    19 -109.085443 -109.051463 3.397911e-02   1.000 1.03838e-02 6.06521e-03
        542    19 -109.086244 -109.054641 3.160226e-02   1.000 1.03104e-02 5.58333e-03
        543    19 -109.086902 -109.058304 2.859844e-02   1.000 1.01605e-02 5.24399e-03
        544    19 -109.087454 -109.063481 2.397265e-02   1.000 1.01276e-02 4.71618e-03
        545    19 -109.087844 -109.067319 2.052471e-02   1.000 1.00691e-02 4.45275e-03
        546    19 -109.088074 -109.070844 1.722997e-02   1.000 1.01420e-02 4.02098e-03
        547    19 -109.087979 -109.073222 1.475740e-02   1.000 9.98333e-03 3.85332e-03
        548    21 -109.087398 -109.076247 1.115159e-02   1.000 9.50851e-03 3.67607e-03
        549    21 -109.087018 -109.079288 7.729455e-03   1.000 9.40674e-03 3.37061e-03
        550    21 -109.086677 -109.080964 5.712443e-03   1.000 9.36040e-03 3.12913e-03
        551    21 -109.086365 -109.082041 4.324129e-03   1.000 9.33698e-03 2.89133e-03
        552    21 -109.086068 -109.082742 3.326083e-03   1.000 9.30129e-03 2.67192e-03
        553    20 -109.085785 -109.083289 2.495273e-03   1.000 9.23780e-03 2.48302e-03
        554    21 -109.085476 -109.083832 1.644239e-03   1.000 9.14140e-03 2.33569e-03
        555    21 -109.085193 -109.084435 7.577267e-04   1.000 8.97871e-03 2.38672e-03
        556    21 -109.084940 -109.085666 7.266666e-04   1.000 8.90176e-03 2.21681e-03
        557    21 -109.084728 -109.086426 1.697683e-03   1.000 8.82827e-03 2.18281e-03
        558    21 -109.084524 -109.086918 2.394197e-03   1.000 8.73699e-03 2.17105e-03
        559    21 -109.084324 -109.087271 2.947766e-03   1.000 8.63571e-03 2.16325e-03
        560    21 -109.084131 -109.087479 3.347450e-03   1.000 8.53833e-03 2.14669e-03
        561    21 -109.083940 -109.087514 3.573293e-03   1.000 8.45090e-03 2.11655e-03
        562    26 -109.083766 -109.087362 3.596154e-03   1.000 8.37978e-03 2.07424e-03
        563    21 -109.083589 -109.086957 3.368209e-03   1.000 8.31888e-03 2.02313e-03
        564    25 -109.083432 -109.086421 2.989352e-03   1.000 8.26957e-03 1.96508e-03
        565    25 -109.083276 -109.085691 2.415165e-03   1.000 8.22614e-03 1.90037e-03
        566    21 -109.083136 -109.084879 1.742663e-03   1.000 8.18806e-03 1.82794e-03
        567    21 -109.083006 -109.084071 1.065844e-03   1.000 8.15022e-03 1.74924e-03
        568    21 -109.082895 -109.083367 4.718552e-04   1.000 8.12153e-03 1.65472e-03
        569    21 -109.082816 -109.082761 5.492671e-05   1.000 8.10364e-03 1.54314e-03
        570    26 -109.082751 -109.082153 5.973161e-04   1.000 8.08817e-03 1.43154e-03
        571    26 -109.082699 -109.081587 1.112651e-03   1.000 8.07186e-03 1.31973e-03
        572    26 -109.082445 -109.081090 1.354120e-03   1.000 7.95103e-03 1.24718e-03
        573    21 -109.081965 -109.080778 1.186539e-03   1.000 7.70057e-03 1.20334e-03
        574    25 -109.081521 -109.080651 8.695253e-04   1.000 7.60372e-03 1.16092e-03
        575    26 -109.081401 -109.080396 1.004793e-03   1.000 7.59333e-03 1.09649e-03
        576    25 -109.081315 -109.079787 1.528730e-03   1.000 7.57841e-03 1.07331e-03
        577    26 -109.081264 -109.079039 2.224333e-03   1.000 7.55206e-03 1.06207e-03
        578    25 -109.081243 -109.078246 2.997352e-03   1.000 7.51344e-03 1.07265e-03
        579    26 -109.081252 -109.077479 3.773746e-03   1.000 7.46593e-03 1.10674e-03
        580    25 -109.081291 -109.076781 4.509614e-03   1.000 7.41487e-03 1.15695e-03
        581    25 -109.081339 -109.076163 5.176002e-03   1.000 7.36540e-03 1.21255e-03
        582    25 -109.081420 -109.075618 5.802418e-03   1.000 7.32083e-03 1.26499e-03
        583    25 -109.081501 -109.075121 6.379875e-03   1.000 7.28271e-03 1.30966e-03
        584    26 -109.081581 -109.074654 6.927636e-03   1.000 7.25070e-03 1.34518e-03
        585    25 -109.081662 -109.074201 7.461214e-03   1.000 7.22337e-03 1.37182e-03
        586    25 -109.081738 -109.073760 7.977589e-03   1.000 7.19908e-03 1.39028e-03
        587    25 -109.081815 -109.073339 8.475668e-03   1.000 7.17644e-03 1.40111e-03
        588    25 -109.081877 -109.072950 8.926992e-03   1.000 7.15442e-03 1.40464e-03
        589    25 -109.081954 -109.072613 9.341050e-03   1.000 7.06865e-03 1.46399e-03
        590    25 -109.082003 -109.072576 9.427330e-03   1.000 7.00022e-03 1.67051e-03
        591    25 -109.082010 -109.072859 9.151495e-03   1.000 7.02911e-03 1.50196e-03
        592    22 -109.082015 -109.072760 9.255310e-03   1.000 7.08465e-03 1.45555e-03
        593    20 -109.082021 -109.072630 9.390818e-03   1.000 7.12250e-03 1.39300e-03
        594    20 -109.082038 -109.072498 9.539511e-03   1.000 7.10870e-03 1.43645e-03
        595    22 -109.082116 -109.072822 9.294507e-03   1.000 6.97679e-03 1.64318e-03
        596    20 -109.082179 -109.073777 8.401837e-03   1.000 6.99261e-03 1.61594e-03
        597    20 -109.082244 -109.075015 7.229124e-03   1.000 7.14655e-03 1.47433e-03
        598    22 -109.082257 -109.075757 6.499639e-03   1.000 7.26584e-03 1.40669e-03
        599    26 -109.081817 -109.076329 5.488287e-03   1.000 6.90565e-03 1.50000e-03
        600    22 -109.081685 -109.077082 4.603196e-03   1.000 6.78679e-03 1.49513e-03
        601    20 -109.081557 -109.077914 3.642672e-03   1.000 6.63763e-03 1.55684e-03
        602    21 -109.081458 -109.078743 2.715414e-03   1.000 6.49887e-03 1.60720e-03
        603    20 -109.081344 -109.079428 1.915442e-03   1.000 6.38892e-03 1.65160e-03
        604    21 -109.081251 -109.080019 1.232014e-03   1.000 6.31664e-03 1.69833e-03
        605    21 -109.081137 -109.080628 5.090412e-04   1.000 6.27858e-03 1.70705e-03
        606    21 -109.081040 -109.081124 8.373102e-05   1.000 6.27207e-03 1.70250e-03
        607    21 -109.080918 -109.081443 5.247852e-04   1.000 6.27179e-03 1.68066e-03
        608    22 -109.080805 -109.081610 8.052427e-04   1.000 6.24883e-03 1.74273e-03
        609    22 -109.080679 -109.082045 1.366136e-03   1.000 6.23041e-03 1.66061e-03
        610    21 -109.080554 -109.082096 1.542184e-03   1.000 6.19677e-03 1.64161e-03
        611    22 -109.080438 -109.081982 1.544136e-03   1.000 6.14594e-03 1.62997e-03
        612    22 -109.080325 -109.081844 1.519803e-03   1.000 6.08401e-03 1.61184e-03
        613    22 -109.080217 -109.081583 1.365529e-03   1.000 6.01232e-03 1.60343e-03
        614    22 -109.080113 -109.081269 1.155549e-03   1.000 5.93237e-03 1.59979e-03
        615    22 -109.080015 -109.080946 9.313590e-04   1.000 5.84617e-03 1.59924e-03
        616    22 -109.079924 -109.080643 7.189541e-04   1.000 5.75672e-03 1.59834e-03
        617    22 -109.079844 -109.080375 5.310090e-04   1.000 5.65765e-03 1.61449e-03
        618    21 -109.079779 -109.080285 5.059837e-04   1.000 5.57265e-03 1.59394e-03
        619    22 -109.079720 -109.080152 4.322123e-04   1.000 5.49785e-03 1.57264e-03
        620    21 -109.079676 -109.079979 3.024720e-04   1.000 5.43610e-03 1.53592e-03
        621    22 -109.079634 -109.079806 1.720198e-04   1.000 5.38231e-03 1.48114e-03
        622    22 -109.079599 -109.079688 8.961027e-05   1.000 5.33431e-03 1.40998e-03
        623    21 -109.079567 -109.079598 3.093563e-05   1.000 5.28882e-03 1.32834e-03
        624    21 -109.079545 -109.079501 4.432145e-05   1.000 5.24677e-03 1.23994e-03
        625    21 -109.079523 -109.079408 1.147449e-04   1.000 5.20506e-03 1.14947e-03
        626    22 -109.079493 -109.079321 1.713718e-04   1.000 5.15958e-03 1.06364e-03
        627    22 -109.079465 -109.079191 2.734561e-04   1.000 5.11679e-03 9.94655e-04
        628    22 -109.079441 -109.079016 4.242331e-04   1.000 5.07968e-03 9.49000e-04
        629    22 -109.079421 -109.078803 6.179492e-04   1.000 5.04865e-03 9.29288e-04
        630    22 -109.079406 -109.078557 8.488661e-04   1.000 5.02328e-03 9.32502e-04
        631    22 -109.079397 -109.078283 1.113176e-03   1.000 5.00257e-03 9.51320e-04
        632    22 -109.079392 -109.077982 1.410137e-03   1.000 4.98571e-03 9.77131e-04
        633    22 -109.079393 -109.077652 1.741272e-03   1.000 4.97236e-03 1.00243e-03
        634    22 -109.079399 -109.077292 2.107088e-03   1.000 4.96221e-03 1.02187e-03
        635    22 -109.079411 -109.076904 2.506556e-03   1.000 4.95479e-03 1.03244e-03
        636    22 -109.079427 -109.076494 2.933675e-03   1.000 4.94908e-03 1.03321e-03
        637    22 -109.079450 -109.076069 3.380447e-03   1.000 4.95394e-03 1.07720e-03
        638    22 -109.079495 -109.075979 3.515654e-03   1.000 5.00519e-03 1.07788e-03
        639    22 -109.079529 -109.075850 3.679321e-03   1.000 5.07237e-03 1.07641e-03
        640    22 -109.079555 -109.075624 3.930871e-03   1.000 5.14009e-03 1.05548e-03
        641    22 -109.079583 -109.075243 4.339538e-03   1.000 5.20002e-03 1.02878e-03
        642    22 -109.079618 -109.074778 4.840027e-03   1.000 5.24159e-03 1.01737e-03
        643    22 -109.079665 -109.074484 5.181030e-03   1.000 5.29383e-03 1.03236e-03
        644    21 -109.079725 -109.074297 5.428592e-03   1.000 5.36094e-03 1.02002e-03
        645    21 -109.079781 -109.074041 5.740938e-03   1.000 5.42130e-03 9.91290e-04
        646    21 -109.079838 -109.073797 6.040991e-03   1.000 5.46172e-03 9.55683e-04
        647    21 -109.079888 -109.073580 6.307688e-03   1.000 5.47187e-03 9.23886e-04
        648    21 -109.079940 -109.073415 6.525000e-03   1.000 5.45500e-03 8.97216e-04
        649    21 -109.079988 -109.073328 6.660791e-03   1.000 5.41542e-03 8.72480e-04
        650    20 -109.080039 -109.073338 6.700348e-03   1.000 5.36307e-03 8.46461e-04
        651    21 -109.080073 -109.073452 6.621076e-03   1.000 5.30228e-03 8.17580e-04
        652    21 -109.080108 -109.073662 6.446848e-03   1.000 5.24491e-03 7.85709e-04
        653    21 -109.080137 -109.073952 6.184965e-03   1.000 5.19425e-03 7.51662e-04
        654    21 -109.080159 -109.074302 5.856831e-03   1.000 5.15332e-03 7.16909e-04
        655    21 -109.080170 -109.074689 5.480639e-03   1.000 5.12186e-03 6.83382e-04
        656    21 -109.080174 -109.075093 5.080742e-03   1.000 5.09937e-03 6.53130e-04
        657    21 -109.080167 -109.075497 4.670366e-03   1.000 5.08207e-03 6.27832e-04
        658    21 -109.080150 -109.075887 4.263060e-03   1.000 5.06672e-03 6.08427e-04
        659    21 -109.080126 -109.076254 3.872447e-03   1.000 5.05093e-03 5.95056e-04
        660    21 -109.080093 -109.076591 3.501717e-03   1.000 5.03121e-03 5.87244e-04
        661    21 -109.080053 -109.076895 3.157961e-03   1.000 5.00680e-03 5.84112e-04
        662    21 -109.080007 -109.077162 2.844775e-03   1.000 4.97745e-03 5.84490e-04
        663    21 -109.079960 -109.077394 2.565916e-03   1.000 4.94457e-03 5.86987e-04
        664    21 -109.079910 -109.077590 2.319856e-03   1.000 4.90863e-03 5.90104e-04
        665    21 -109.079858 -109.077751 2.106560e-03   1.000 4.87134e-03 5.92440e-04
        666    22 -109.079804 -109.077877 1.926736e-03   1.000 4.83467e-03 5.92889e-04
        667    22 -109.079751 -109.077971 1.780354e-03   1.000 4.79967e-03 5.90784e-04
        668    22 -109.079697 -109.078032 1.664636e-03   1.000 4.76719e-03 5.85907e-04
        669    22 -109.079646 -109.078063 1.582714e-03   1.000 4.73806e-03 5.78399e-04
        670    22 -109.079601 -109.078065 1.535919e-03   1.000 4.71253e-03 5.68640e-04
        671    22 -109.079551 -109.078041 1.510227e-03   1.000 4.68842e-03 5.57127e-04
        672    22 -109.079508 -109.077991 1.516657e-03   1.000 4.66695e-03 5.44353e-04
        673    22 -109.079467 -109.077920 1.547111e-03   1.000 4.64670e-03 5.30765e-04
        674    22 -109.079428 -109.077830 1.597519e-03   1.000 4.62692e-03 5.16729e-04
        675    22 -109.079395 -109.077726 1.669241e-03   1.000 4.60740e-03 5.02523e-04
        676    22 -109.079365 -109.077611 1.753673e-03   1.000 4.58746e-03 4.88347e-04
        677    26 -109.079339 -109.077490 1.849038e-03   1.000 4.56722e-03 4.74363e-04
        678    22 -109.079316 -109.077362 1.953052e-03   1.000 4.54643e-03 4.60538e-04
        679    27 -109.079298 -109.077237 2.060131e-03   1.000 4.52566e-03 4.46975e-04
        680    22 -109.079281 -109.077111 2.170035e-03   1.000 4.50497e-03 4.33648e-04
        681    22 -109.079269 -109.076990 2.278552e-03   1.000 4.48489e-03 4.20608e-04
        682    22 -109.079242 -109.076874 2.367765e-03   1.000 4.44331e-03 4.09527e-04
        683    27 -109.079033 -109.076779 2.254212e-03   1.000 4.29255e-03 5.02218e-04
        684    22 -109.078616 -109.076838 1.778863e-03   1.000 3.86142e-03 6.53706e-04
        685    22 -109.078402 -109.077105 1.296906e-03   1.000 3.68866e-03 5.83490e-04
        686    22 -109.078222 -109.077273 9.491566e-04   1.000 3.71620e-03 6.03434e-04
        687    22 -109.078186 -109.077370 8.155873e-04   1.000 3.78336e-03 5.47364e-04
        688    22 -109.078152 -109.077287 8.650456e-04   1.000 3.86395e-03 4.97896e-04
        689    22 -109.078123 -109.077104 1.018706e-03   1.000 3.93184e-03 4.43514e-04
        690    23 -109.077846 -109.076850 9.959929e-04   1.000 3.56616e-03 5.49426e-04
        691    22 -109.077736 -109.076745 9.905599e-04   1.000 3.50745e-03 4.64876e-04
        692    22 -109.077675 -109.076592 1.083615e-03   1.000 3.46579e-03 4.71878e-04
        693    22 -109.077620 -109.076403 1.216571e-03   1.000 3.42378e-03 4.71508e-04
        694    22 -109.077575 -109.076192 1.382893e-03   1.000 3.38926e-03 4.65313e-04
        695    22 -109.077540 -109.075968 1.571870e-03   1.000 3.36492e-03 4.57547e-04
        696    22 -109.077520 -109.075744 1.776555e-03   1.000 3.35172e-03 4.49426e-04
        697    22 -109.077515 -109.075536 1.979321e-03   1.000 3.34780e-03 4.41008e-04
        698    22 -109.077523 -109.075356 2.166776e-03   1.000 3.34854e-03 4.31979e-04
        699    22 -109.077541 -109.075211 2.329823e-03   1.000 3.35184e-03 4.21894e-04
        700    22 -109.077566 -109.075103 2.463629e-03   1.000 3.35270e-03 4.10663e-04
        701    22 -109.077600 -109.075037 2.562766e-03   1.000 3.35028e-03 3.98136e-04
        702    23 -109.077590 -109.075018 2.571891e-03   1.000 3.26304e-03 3.90491e-04
        703    22 -109.077381 -109.075069 2.311767e-03   1.000 3.04377e-03 5.15028e-04
        704    21 -109.077370 -109.075296 2.073471e-03   1.000 3.03051e-03 4.13444e-04
        705    22 -109.077350 -109.075463 1.886506e-03   1.000 3.02292e-03 4.14624e-04
        706    22 -109.077322 -109.075608 1.713991e-03   1.000 3.02120e-03 4.05394e-04
        707    22 -109.077288 -109.075713 1.575382e-03   1.000 3.02500e-03 3.89583e-04
        708    22 -109.077253 -109.075777 1.475654e-03   1.000 2.98949e-03 4.51948e-04
        709    22 -109.077229 -109.075978 1.250469e-03   1.000 2.90232e-03 6.47643e-04
        710    21 -109.077234 -109.076527 7.072734e-04   1.000 2.83117e-03 5.85289e-04
        711    21 -109.077240 -109.076957 2.831783e-04   1.000 2.78052e-03 6.31592e-04
        712    21 -109.077224 -109.077353 1.282590e-04   1.000 2.76281e-03 6.76880e-04
        713    21 -109.077189 -109.077761 5.726321e-04   1.000 2.76638e-03 7.03700e-04
        714    21 -109.077134 -109.078153 1.018929e-03   1.000 2.77609e-03 7.12244e-04
        715    21 -109.077071 -109.078493 1.421990e-03   1.000 2.77390e-03 7.03941e-04
        716    21 -109.077006 -109.078758 1.752165e-03   1.000 2.75137e-03 6.83754e-04
        717    21 -109.076944 -109.078932 1.988957e-03   1.000 2.70571e-03 6.59120e-04
        718    22 -109.076890 -109.079016 2.126254e-03   1.000 2.64138e-03 6.36757e-04
        719    22 -109.076842 -109.079017 2.175383e-03   1.000 2.56825e-03 6.20448e-04
        720    22 -109.076799 -109.078948 2.148365e-03   1.000 2.49431e-03 6.10558e-04
        721    22 -109.076764 -109.078823 2.059906e-03   1.000 2.42562e-03 6.04795e-04
        722    22 -109.076737 -109.078661 1.924113e-03   1.000 2.36525e-03 5.99508e-04
        723    21 -109.076715 -109.078476 1.760920e-03   1.000 2.31489e-03 5.91021e-04
        724    21 -109.076679 -109.078283 1.603561e-03   1.000 2.27369e-03 5.78551e-04
        725    21 -109.076654 -109.078165 1.511124e-03   1.000 2.24453e-03 5.60421e-04
        726    21 -109.076655 -109.078075 1.420499e-03   1.000 2.21720e-03 5.36506e-04
        727    20 -109.076660 -109.077972 1.312450e-03   1.000 2.19355e-03 5.08608e-04
        728    21 -109.076679 -109.077879 1.199716e-03   1.000 2.16964e-03 4.76877e-04
        729    21 -109.076699 -109.077793 1.093288e-03   1.000 2.14816e-03 4.42580e-04
        730    21 -109.076721 -109.077715 9.937569e-04   1.000 2.12819e-03 4.07411e-04
        731    21 -109.076739 -109.077644 9.046418e-04   1.000 2.10962e-03 3.73576e-04
        732    21 -109.076754 -109.077580 8.256754e-04   1.000 2.09163e-03 3.43685e-04
        733    21 -109.076765 -109.077519 7.547004e-04   1.000 2.07345e-03 3.20355e-04
        734    25 -109.076770 -109.077461 6.910820e-04   1.000 2.05563e-03 3.05541e-04
        735    26 -109.076767 -109.077401 6.332973e-04   1.000 2.03808e-03 2.99631e-04
        736    25 -109.076759 -109.077336 5.768400e-04   1.000 2.02144e-03 3.01337e-04
        737    25 -109.076745 -109.077264 5.197990e-04   1.000 2.00633e-03 3.07896e-04
        738    25 -109.076726 -109.077186 4.603566e-04   1.000 1.99330e-03 3.16130e-04
        739    26 -109.076703 -109.077100 3.965166e-04   1.000 1.98270e-03 3.23218e-04
        740    21 -109.076679 -109.077006 3.268885e-04   1.000 1.97456e-03 3.27089e-04
[...]
       3416    21 -109.094406 -109.094402 3.950352e-06   4.550 6.76082e-06 2.48319e-06
       3417    21 -109.094406 -109.094402 3.936767e-06   4.550 6.75149e-06 2.48011e-06
       3418    21 -109.094406 -109.094402 3.922796e-06   4.550 6.74229e-06 2.47706e-06
       3419    21 -109.094406 -109.094402 3.909284e-06   4.550 6.73302e-06 2.47404e-06
       3420    21 -109.094406 -109.094402 3.892800e-06   4.550 6.72379e-06 2.47106e-06
       3421    21 -109.094406 -109.094402 3.879222e-06   4.550 6.71483e-06 2.46810e-06
       3422    21 -109.094406 -109.094402 3.863810e-06   4.550 6.70560e-06 2.46518e-06
       3423    21 -109.094406 -109.094402 3.849169e-06   4.550 6.69670e-06 2.46228e-06
       3424    20 -109.094406 -109.094402 3.835822e-06   4.550 6.68778e-06 2.45942e-06
       3425    21 -109.094406 -109.094403 3.819968e-06   4.550 6.67875e-06 2.45657e-06
       3426    21 -109.094406 -109.094403 3.804783e-06   4.550 6.66964e-06 2.45376e-06
       3427    21 -109.094406 -109.094403 3.788164e-06   4.550 6.66085e-06 2.45096e-06
       3428    21 -109.094406 -109.094403 3.775778e-06   4.550 6.65181e-06 2.44819e-06
       3429    21 -109.094406 -109.094403 3.761002e-06   4.550 6.64296e-06 2.44544e-06
       3430    21 -109.094406 -109.094403 3.745569e-06   4.550 6.63428e-06 2.44272e-06
       3431    21 -109.094406 -109.094403 3.731783e-06   4.550 6.62553e-06 2.44001e-06
       3432    21 -109.094406 -109.094403 3.719048e-06   4.550 6.61656e-06 2.43732e-06
       3433    21 -109.094406 -109.094403 3.705670e-06   4.550 6.60786e-06 2.43466e-06
       3434    21 -109.094406 -109.094403 3.693414e-06   4.550 6.59906e-06 2.43201e-06
       3435    21 -109.094406 -109.094403 3.680272e-06   4.550 6.59039e-06 2.42938e-06
       3436    21 -109.094406 -109.094403 3.668878e-06   4.550 6.58162e-06 2.42678e-06
       3437    21 -109.094406 -109.094403 3.657208e-06   4.550 6.57290e-06 2.42419e-06
       3438    21 -109.094406 -109.094403 3.646115e-06   4.550 6.56425e-06 2.42161e-06
       3439    20 -109.094406 -109.094403 3.633100e-06   4.550 6.55495e-06 2.41906e-06
       3440    21 -109.094406 -109.094403 3.626232e-06   4.550 6.54690e-06 2.41653e-06
       3441    21 -109.094406 -109.094403 3.616297e-06   4.550 6.53820e-06 2.41401e-06
       3442    21 -109.094406 -109.094403 3.607987e-06   4.550 6.52947e-06 2.41152e-06
       3443    21 -109.094406 -109.094403 3.598757e-06   4.550 6.52098e-06 2.40904e-06
       3444    21 -109.094406 -109.094403 3.591954e-06   4.550 6.51213e-06 2.40659e-06
       3445    21 -109.094406 -109.094403 3.583698e-06   4.550 6.50355e-06 2.40415e-06
       3446    21 -109.094406 -109.094403 3.577268e-06   4.550 6.49482e-06 2.40174e-06
       3447    21 -109.094406 -109.094403 3.570910e-06   4.550 6.48642e-06 2.39934e-06
       3448    21 -109.094406 -109.094403 3.563610e-06   4.550 6.47756e-06 2.39697e-06
       3449    21 -109.094406 -109.094403 3.557819e-06   4.550 6.46895e-06 2.39462e-06
       3450    21 -109.094406 -109.094403 3.551840e-06   4.550 6.46026e-06 2.39229e-06
       3451    21 -109.094406 -109.094403 3.547178e-06   4.550 6.45164e-06 2.38998e-06
       3452    21 -109.094406 -109.094403 3.542159e-06   4.550 6.44282e-06 2.38770e-06
       3453    21 -109.094406 -109.094403 3.537101e-06   4.550 6.43408e-06 2.38543e-06
       3454    21 -109.094406 -109.094403 3.531098e-06   4.550 6.42561e-06 2.38319e-06
       3455    21 -109.094406 -109.094403 3.527273e-06   4.550 6.41648e-06 2.38098e-06
       3456    21 -109.094406 -109.094403 3.522180e-06   4.550 6.40803e-06 2.37878e-06
       3457    21 -109.094406 -109.094403 3.519573e-06   4.550 6.40002e-06 2.37660e-06
       3458    21 -109.094406 -109.094403 3.515124e-06   4.550 6.39092e-06 2.37445e-06
       3459    21 -109.094406 -109.094403 3.509764e-06   4.550 6.38232e-06 2.37233e-06
       3460    21 -109.094406 -109.094403 3.504530e-06   4.550 6.37352e-06 2.37022e-06
       3461    21 -109.094406 -109.094403 3.499854e-06   4.550 6.36486e-06 2.36813e-06
       3462    21 -109.094406 -109.094403 3.494819e-06   4.550 6.35542e-06 2.36607e-06
       3463    21 -109.094406 -109.094403 3.489557e-06   4.550 6.34752e-06 2.36402e-06
       3464    21 -109.094406 -109.094403 3.485416e-06   4.550 6.33876e-06 2.36200e-06
       3465    21 -109.094406 -109.094403 3.480177e-06   4.550 6.33018e-06 2.36000e-06
       3466    21 -109.094406 -109.094403 3.474441e-06   4.550 6.32161e-06 2.35801e-06
       3467    21 -109.094406 -109.094403 3.469802e-06   4.550 6.31373e-06 2.35604e-06
       3468    21 -109.094406 -109.094403 3.463364e-06   4.550 6.30441e-06 2.35410e-06
       3469    21 -109.094406 -109.094403 3.456745e-06   4.550 6.29581e-06 2.35217e-06
       3470    21 -109.094406 -109.094403 3.451393e-06   4.550 6.28722e-06 2.35025e-06
       3471    21 -109.094406 -109.094403 3.445109e-06   4.550 6.27864e-06 2.34835e-06
       3472    21 -109.094406 -109.094403 3.438549e-06   4.550 6.27020e-06 2.34647e-06
       3473    21 -109.094406 -109.094403 3.431369e-06   4.550 6.26175e-06 2.34460e-06
       3474    21 -109.094406 -109.094403 3.425708e-06   4.550 6.25318e-06 2.34274e-06
       3475    21 -109.094406 -109.094403 3.420306e-06   4.550 6.24445e-06 2.34090e-06
       3476    21 -109.094406 -109.094403 3.411120e-06   4.550 6.23619e-06 2.33907e-06
       3477    21 -109.094406 -109.094403 3.403878e-06   4.550 6.22777e-06 2.33725e-06
       3478    21 -109.094406 -109.094403 3.397457e-06   4.550 6.21939e-06 2.33544e-06
       3479    21 -109.094406 -109.094403 3.390146e-06   4.550 6.21083e-06 2.33364e-06
       3480    21 -109.094406 -109.094403 3.382438e-06   4.550 6.20254e-06 2.33185e-06
       3481    21 -109.094406 -109.094403 3.374214e-06   4.550 6.19418e-06 2.33006e-06
       3482    21 -109.094406 -109.094403 3.367424e-06   4.550 6.18589e-06 2.32829e-06
       3483    21 -109.094406 -109.094403 3.358360e-06   4.550 6.17776e-06 2.32652e-06
       3484    21 -109.094406 -109.094403 3.351851e-06   4.550 6.16911e-06 2.32476e-06
       3485    21 -109.094406 -109.094403 3.343420e-06   4.550 6.16098e-06 2.32300e-06
       3486    21 -109.094406 -109.094403 3.337497e-06   4.550 6.15244e-06 2.32125e-06
       3487    21 -109.094406 -109.094403 3.329663e-06   4.550 6.14477e-06 2.31950e-06
       3488    21 -109.094406 -109.094403 3.323165e-06   4.550 6.13622e-06 2.31776e-06
       3489    21 -109.094406 -109.094403 3.315241e-06   4.550 6.12770e-06 2.31602e-06
       3490    21 -109.094406 -109.094403 3.308031e-06   4.550 6.11957e-06 2.31429e-06
       3491    21 -109.094406 -109.094403 3.300977e-06   4.550 6.11145e-06 2.31256e-06
       3492    21 -109.094406 -109.094403 3.293114e-06   4.550 6.10330e-06 2.31082e-06
       3493    21 -109.094406 -109.094403 3.287265e-06   4.550 6.09504e-06 2.30910e-06
       3494    21 -109.094406 -109.094403 3.280252e-06   4.550 6.08744e-06 2.30737e-06
       3495    21 -109.094406 -109.094403 3.273016e-06   4.550 6.07878e-06 2.30564e-06
       3496    21 -109.094406 -109.094403 3.265026e-06   4.550 6.07091e-06 2.30392e-06
       3497    21 -109.094406 -109.094403 3.260086e-06   4.550 6.06285e-06 2.30219e-06
       3498    21 -109.094406 -109.094403 3.252636e-06   4.550 6.05459e-06 2.30047e-06
       3499    21 -109.094406 -109.094403 3.247009e-06   4.550 6.04639e-06 2.29875e-06

        ==> Orbital Optimization <==

            Orbital Optimization converged in   1 iterations 
            Total energy change: -5.896425e-09
            Final gradient norm: 4.911728e-05

       3500    21 -109.094406 -109.095283 8.768421e-04   4.550 6.03844e-06 2.29703e-06
       3501    30 -109.094405 -109.094566 1.610141e-04   4.550 1.06007e-05 6.91818e-05
       3502    28 -109.094402 -109.094521 1.193617e-04   4.550 1.33213e-05 4.68008e-05
       3503    27 -109.094399 -109.094480 8.147134e-05   4.550 1.40769e-05 3.20478e-05
       3504    25 -109.094397 -109.094448 5.037438e-05   4.550 1.35717e-05 2.62703e-05
       3505    24 -109.094397 -109.094423 2.652615e-05   4.550 1.22053e-05 2.75739e-05
       3506    26 -109.094398 -109.094408 1.017854e-05   4.550 1.07094e-05 3.01053e-05
       3507    25 -109.094399 -109.094401 2.119888e-06   4.550 9.77077e-06 3.06185e-05
       3508    22 -109.094400 -109.094402 1.963708e-06   4.550 9.52545e-06 2.88705e-05
       3509    21 -109.094401 -109.094408 6.915016e-06   4.550 9.66263e-06 2.57891e-05
       3510    21 -109.094402 -109.094416 1.408855e-05   4.550 9.90437e-06 2.25430e-05
       3511    21 -109.094403 -109.094422 1.966319e-05   4.550 1.01338e-05 2.00674e-05
       3512    22 -109.094403 -109.094424 2.122621e-05   4.550 1.03130e-05 1.87250e-05
       3513    21 -109.094403 -109.094421 1.786589e-05   4.550 1.03895e-05 1.82598e-05
       3514    21 -109.094403 -109.094413 1.001360e-05   4.550 1.03040e-05 1.81763e-05
       3515    21 -109.094403 -109.094402 1.175886e-06   4.550 1.00288e-05 1.81060e-05
       3516    21 -109.094403 -109.094389 1.402239e-05   4.550 9.59692e-06 1.78907e-05
       3517    21 -109.094403 -109.094376 2.700683e-05   4.550 9.08301e-06 1.75200e-05
       3518    21 -109.094403 -109.094364 3.898578e-05   4.550 8.55727e-06 1.70579e-05
       3519    20 -109.094403 -109.094354 4.927720e-05   4.550 8.06341e-06 1.65837e-05
       3520    21 -109.094403 -109.094346 5.760134e-05   4.550 7.59182e-06 1.61458e-05
       3521    21 -109.094404 -109.094340 6.396287e-05   4.550 7.14344e-06 1.57420e-05
       3522    21 -109.094404 -109.094336 6.853874e-05   4.550 6.70632e-06 1.53341e-05
       3523    20 -109.094405 -109.094334 7.150258e-05   4.550 6.28618e-06 1.48813e-05
       3524    21 -109.094406 -109.094333 7.300170e-05   4.550 5.90105e-06 1.43624e-05
       3525    21 -109.094406 -109.094333 7.307115e-05   4.550 5.55782e-06 1.37769e-05
       3526    21 -109.094407 -109.094335 7.167107e-05   4.550 5.26358e-06 1.31290e-05
       3527    21 -109.094408 -109.094339 6.882225e-05   4.550 5.01971e-06 1.24166e-05
       3528    21 -109.094408 -109.094343 6.461856e-05   4.550 4.82603e-06 1.16330e-05
       3529    21 -109.094408 -109.094349 5.907880e-05   4.550 4.68128e-06 1.07818e-05
       3530    21 -109.094409 -109.094356 5.236572e-05   4.550 4.57991e-06 9.89446e-06
       3531    25 -109.094409 -109.094364 4.469273e-05   4.550 4.51219e-06 9.04039e-06
       3532    21 -109.094409 -109.094372 3.646882e-05   4.550 4.46490e-06 8.32055e-06
       3533    21 -109.094409 -109.094381 2.781299e-05   4.550 4.42675e-06 7.84096e-06
       3534    21 -109.094409 -109.094390 1.915707e-05   4.550 4.39143e-06 7.67038e-06
       3535    21 -109.094409 -109.094398 1.073886e-05   4.550 4.35626e-06 7.80191e-06
       3536    21 -109.094409 -109.094406 2.784631e-06   4.550 4.32448e-06 8.15878e-06
       3537    21 -109.094408 -109.094413 4.529497e-06   4.550 4.30198e-06 8.63554e-06
       3538    21 -109.094408 -109.094419 1.107093e-05   4.550 4.29675e-06 9.13625e-06
       3539    21 -109.094408 -109.094425 1.674521e-05   4.550 4.31507e-06 9.59004e-06
       3540    21 -109.094407 -109.094429 2.148686e-05   4.550 4.36031e-06 9.95103e-06
       3541    21 -109.094407 -109.094432 2.524586e-05   4.550 4.43940e-06 1.01932e-05
       3542    18 -109.094407 -109.094435 2.802060e-05   4.550 4.54847e-06 1.03042e-05
       3543    18 -109.094406 -109.094436 2.975593e-05   4.550 4.68535e-06 1.02835e-05
       3544    18 -109.094406 -109.094437 3.050976e-05   4.550 4.84513e-06 1.01366e-05
       3545    18 -109.094406 -109.094436 3.030271e-05   4.550 5.02113e-06 9.87454e-06
       3546    18 -109.094406 -109.094435 2.919544e-05   4.550 5.20640e-06 9.51254e-06
       3547    18 -109.094405 -109.094433 2.727249e-05   4.550 5.39299e-06 9.07027e-06
       3548    17 -109.094405 -109.094430 2.463749e-05   4.550 5.57366e-06 8.57183e-06
       3549    17 -109.094405 -109.094426 2.140500e-05   4.550 5.74175e-06 8.04524e-06
       3550    17 -109.094405 -109.094422 1.771990e-05   4.550 5.89114e-06 7.52216e-06
       3551    17 -109.094404 -109.094418 1.371373e-05   4.550 6.01685e-06 7.03573e-06
       3552    17 -109.094404 -109.094414 9.523504e-06   4.550 6.11520e-06 6.61761e-06
       3553    17 -109.094404 -109.094409 5.274009e-06   4.550 6.18384e-06 6.29376e-06
       3554    17 -109.094404 -109.094405 1.076934e-06   4.550 6.22174e-06 6.08002e-06
       3555    18 -109.094404 -109.094401 2.983720e-06   4.550 6.22951e-06 5.97961e-06
       3556    18 -109.094404 -109.094397 6.805436e-06   4.550 6.20814e-06 5.98273e-06
       3557    18 -109.094404 -109.094394 1.034806e-05   4.550 6.15999e-06 6.07112e-06
       3558    18 -109.094404 -109.094390 1.355812e-05   4.550 6.08808e-06 6.22209e-06
       3559    18 -109.094404 -109.094388 1.640623e-05   4.550 5.99590e-06 6.41249e-06
       3560    18 -109.094404 -109.094385 1.887543e-05   4.550 5.88767e-06 6.62052e-06
       3561    18 -109.094404 -109.094383 2.095857e-05   4.550 5.76728e-06 6.82622e-06
       3562    17 -109.094404 -109.094382 2.264487e-05   4.550 5.63883e-06 7.01145e-06
       3563    17 -109.094405 -109.094381 2.397141e-05   4.550 5.50669e-06 7.15998e-06
       3564    17 -109.094405 -109.094380 2.493057e-05   4.550 5.37461e-06 7.25806e-06
       3565    17 -109.094405 -109.094379 2.554020e-05   4.550 5.24600e-06 7.29484e-06
       3566    17 -109.094405 -109.094379 2.581677e-05   4.550 5.12388e-06 7.26327e-06
       3567    17 -109.094405 -109.094380 2.577569e-05   4.550 5.01066e-06 7.16052e-06
       3568    17 -109.094406 -109.094380 2.543182e-05   4.550 4.90785e-06 6.98831e-06
       3569    17 -109.094406 -109.094381 2.480028e-05   4.550 4.81633e-06 6.75289e-06
       3570    18 -109.094406 -109.094382 2.390047e-05   4.550 4.73656e-06 6.46480e-06
       3571    18 -109.094406 -109.094383 2.274164e-05   4.550 4.66779e-06 6.13842e-06
       3572    18 -109.094406 -109.094385 2.134277e-05   4.550 4.60973e-06 5.79161e-06
       3573    18 -109.094406 -109.094387 1.972614e-05   4.550 4.56170e-06 5.44484e-06
       3574    18 -109.094407 -109.094389 1.791477e-05   4.550 4.52295e-06 5.12028e-06
       3575    18 -109.094407 -109.094391 1.593483e-05   4.550 4.49246e-06 4.84007e-06
       3576    18 -109.094407 -109.094393 1.381694e-05   4.550 4.47013e-06 4.62374e-06
       3577    18 -109.094407 -109.094395 1.159373e-05   4.550 4.45513e-06 4.48475e-06
       3578    18 -109.094407 -109.094397 9.302183e-06   4.550 4.44778e-06 4.42735e-06
       3579    18 -109.094407 -109.094400 6.981674e-06   4.550 4.44814e-06 4.44536e-06
       3580    18 -109.094407 -109.094402 4.672297e-06   4.550 4.45571e-06 4.52380e-06
       3581    18 -109.094407 -109.094404 2.417349e-06   4.550 4.47142e-06 4.64273e-06
       3582    17 -109.094407 -109.094406 2.589143e-07   4.550 4.49506e-06 4.78126e-06

        ==> Orbital Optimization <==

            Orbital Optimization converged in   1 iterations 
            Total energy change: -1.532300e-09
            Final gradient norm: 2.473196e-05


      v2RDM iterations converged!

    Molecular point group: d2h
    Full point group: D_inf_h

    Geometry (in Angstrom), charge = 0, multiplicity = 1:

       Center              X                  Y                   Z               Mass       
    ------------   -----------------  -----------------  -----------------  -----------------
         N            0.000000000000     0.000000000000    -0.550000000000    14.003074004430
         N            0.000000000000     0.000000000000     0.550000000000    14.003074004430

  -AO BASIS SET INFORMATION:
    Name                   = CC-PVDZ
    Blend                  = CC-PVDZ
    Total number of shells = 12
    Number of primitives   = 44
    Number of AO           = 30
    Number of SO           = 28
    Maximum AM             = 2
    Spherical Harmonics    = TRUE

  -Contraction Scheme:
    Atom   Type   All Primitives // Shells:
   ------ ------ --------------------------
       1     N     17s 4p 1d // 3s 2p 1d 
       2     N     17s 4p 1d // 3s 2p 1d 

  ==> AO Basis Functions <==

    [ CC-PVDZ ]
    spherical
    ****
    N   1
    S   8 1.00
                      9046.00000000           0.00070000
                      1357.00000000           0.00538900
                       309.30000000           0.02740600
                        87.73000000           0.10320700
                        28.56000000           0.27872300
                        10.21000000           0.44854000
                         3.83800000           0.27823800
                         0.74660000           0.01544000
    S   8 1.00
                      9046.00000000          -0.00015300
                      1357.00000000          -0.00120800
                       309.30000000          -0.00599200
                        87.73000000          -0.02454400
                        28.56000000          -0.06745900
                        10.21000000          -0.15807800
                         3.83800000          -0.12183100
                         0.74660000           0.54900300
    S   1 1.00
                         0.22480000           1.00000000
    P   3 1.00
                        13.55000000           0.03991900
                         2.91700000           0.21716900
                         0.79730000           0.51031900
    P   1 1.00
                         0.21850000           1.00000000
    D   1 1.00
                         0.81700000           1.00000000
    ****

      na:                                    3.000000
      nb:                                    3.000000
      v2RDM total spin [S(S+1)]:            -0.000001

      Nuclear Repulsion Energy:               23.572439384391
      Two-Electron Energy:                    61.696213025720
      Kinetic Energy:                        109.122780141365
      Electron-Nuclear Potential Energy:    -303.485839060824

    * v2RDM total energy:                   -109.094406509348


 # Natural Orbital Occupation Numbers (alpha) #
 Irrep: 1
      1:  1.0000000
      2:  1.0000000
      3:  0.9906006
      4:  0.0000000
      5:  0.0000000
      6:  0.0000000
      7:  0.0000000

 Irrep: 2
      1:  0.0000000

 Irrep: 3
      1:  0.0326588
      2:  0.0000000
      3:  0.0000000

 Irrep: 4
      1:  0.0326588
      2:  0.0000000
      3:  0.0000000

 Irrep: 5
      1:  0.0000000

 Irrep: 6
      1:  1.0000000
      2:  1.0000000
      3:  0.0094022
      4:  0.0000000
      5:  0.0000000
      6:  0.0000000
      7:  0.0000000

 Irrep: 7
      1:  0.9673398
      2:  0.0000000
      3:  0.0000000

 Irrep: 8
      1:  0.9673398
      2:  0.0000000
      3:  0.0000000


 # Natural Orbital Occupation Numbers (beta) #
 Irrep: 1
      1:  1.0000000
      2:  1.0000000
      3:  0.9906006
      4:  0.0000000
      5:  0.0000000
      6:  0.0000000
      7:  0.0000000

 Irrep: 2
      1:  0.0000000

 Irrep: 3
      1:  0.0326588
      2:  0.0000000
      3:  0.0000000

 Irrep: 4
      1:  0.0326588
      2:  0.0000000
      3:  0.0000000

 Irrep: 5
      1:  0.0000000

 Irrep: 6
      1:  1.0000000
      2:  1.0000000
      3:  0.0094022
      4:  0.0000000
      5:  0.0000000
      6:  0.0000000
      7:  0.0000000

 Irrep: 7
      1:  0.9673398
      2:  0.0000000
      3:  0.0000000

 Irrep: 8
      1:  0.9673398
      2:  0.0000000
      3:  0.0000000


  ==> Iteration count <==

      Microiterations:                   77890
      Macroiterations:                    3583
      Orbital optimization steps:            8

  ==> Wall time <==

      Microiterations:                    9.85 s
      Macroiterations:                    3.87 s
      Orbital optimization:               0.38 s
      Total:                             14.65 s

    SCF total energy..................................................PASSED
    v2RDM-CASSCF total energy.........................................PASSED

    Psi4 stopped on: Thursday, 16 July 2020 09:22AM
    Psi4 wall time for execution: 0:00:15.09

*** Psi4 exiting successfully. Buy a developer a beer!
